# LAMMPS data file written by OVITO Basic 3.4.3
1310 atoms
1 atom types
1.0 50.0 xlo xhi
1.0 50.0 ylo yhi
1.999825 28.0 zlo zhi

Atoms  # atomic

1 1 12.398009 18.9046 12.77328
2 1 16.895004 36.715889 20.525689
3 1 26.124377 41.500824 2.528186
4 1 46.931783 29.881977 20.734472
5 1 25.111037 11.783189 19.195318
6 1 21.576599 32.706473 25.181244
7 1 12.919187 30.627085 10.385001
8 1 29.100764 3.103139 25.550417
9 1 12.750723 23.570813 25.3907
10 1 16.54472 46.695752 21.584746
11 1 14.973895 25.958138 27.477101
12 1 47.992858 1.486427 17.281837
13 1 9.857766 7.382188 18.388445
14 1 27.763691 19.991952 20.278343
15 1 12.23514 37.258556 15.1901
16 1 36.889723 5.407644 11.968311
17 1 30.525752 40.922934 6.149321
18 1 41.762105 29.088196 27.750399
19 1 22.950381 38.763338 13.407077
20 1 33.605073 20.80852 15.152273
21 1 31.066506 24.26607 2.0
22 1 3.866249 19.073201 13.081232
23 1 20.81475 2.473524 19.219939
24 1 39.82603 5.197081 8.17631
25 1 10.087533 23.098948 15.731745
26 1 31.274083 32.616925 20.092179
27 1 49.922773 9.52362 14.878418
28 1 14.060239 33.88956 5.595741
29 1 30.847399 40.027191 19.773983
30 1 45.68597 42.900386 16.939608
31 1 49.726808 36.954477 21.456518
32 1 16.76151 45.429638 15.209961
33 1 37.793954 3.836047 16.274592
34 1 26.009203 32.454471 17.241047
35 1 23.83027 1.884062 25.274615
36 1 20.298836 6.136968 24.207565
37 1 21.289345 15.878391 7.804268
38 1 38.132058 11.579864 22.949124
39 1 18.62859 24.119766 19.923864
40 1 4.551221 27.977022 20.490208
41 1 36.470866 44.815129 16.026896
42 1 39.92207 35.041681 6.693255
43 1 25.190707 17.786898 3.409112
44 1 50.0 24.994775 12.126175
45 1 17.35345 33.910668 28.0
46 1 4.090078 46.459128 14.219747
47 1 44.891108 35.029638 17.449283
48 1 1.748559 25.345721 8.050362
49 1 1.77949 13.940967 27.252583
50 1 16.350909 19.803182 20.514843
51 1 4.088239 13.502485 23.432443
52 1 45.948583 4.133354 25.121518
53 1 17.795745 21.044329 11.875124
54 1 48.292128 22.307971 19.533884
55 1 34.722531 43.470136 16.671638
56 1 38.703388 5.104473 20.565919
57 1 7.27571 36.044794 25.527746
58 1 44.621324 39.08672 26.068084
59 1 32.633807 49.493034 23.166462
60 1 21.864626 19.872805 16.387329
61 1 16.174206 40.894763 6.113535
62 1 41.553113 48.025595 16.652823
63 1 43.19077 1.809077 21.300794
64 1 40.289081 41.488327 15.963102
65 1 41.266692 29.896752 24.863215
66 1 25.349382 34.517763 22.758888
67 1 24.964521 32.032724 23.04283
68 1 11.959051 14.243788 5.365167
69 1 3.498241 37.316186 13.284838
70 1 23.968033 13.412373 22.833998
71 1 1.836844 48.260746 5.670634
72 1 5.580035 38.453644 14.529423
73 1 16.705584 49.063103 4.550218
74 1 34.010349 31.035473 15.617942
75 1 4.648264 17.205982 15.390182
76 1 43.336552 1.435208 18.348482
77 1 39.658995 43.978849 2.279498
78 1 40.887481 33.624823 17.273232
79 1 4.450184 47.324207 10.990918
80 1 45.212056 1.0 26.547825
81 1 32.084401 39.146943 3.74251
82 1 24.257341 31.034089 27.890588
83 1 9.795176 47.967229 26.360719
84 1 10.966254 10.520792 2.899581
85 1 2.52687 24.881766 23.783586
86 1 11.085218 22.364188 13.742894
87 1 7.723409 29.770115 5.955339
88 1 37.395719 7.557542 14.612788
89 1 41.184371 27.996477 7.22669
90 1 47.712439 34.720743 23.877046
91 1 4.91597 21.910385 12.25335
92 1 11.13428 38.236152 13.293826
93 1 18.490328 11.026895 16.963304
94 1 44.671487 26.613063 16.350044
95 1 48.384729 40.694516 14.950045
96 1 34.379594 49.999985 8.237073
97 1 37.602761 18.53179 22.291798
98 1 9.7284 32.454929 3.27636
99 1 45.117827 26.68077 19.120273
100 1 21.011453 43.058227 9.857173
101 1 18.933855 15.000636 24.99254
102 1 2.062799 12.285859 15.643637
103 1 44.046092 17.514156 24.437164
104 1 8.964018 19.077139 26.794737
105 1 41.585118 31.547513 19.142483
106 1 18.819343 16.602463 5.172035
107 1 47.109741 35.573906 5.561696
108 1 1.938932 44.958266 6.805617
109 1 48.21151 31.356915 16.181798
110 1 19.659732 29.555681 16.157215
111 1 36.399324 19.303434 2.225523
112 1 25.029508 20.336888 23.370453
113 1 28.001295 24.423973 7.843182
114 1 12.872856 26.632805 27.027471
115 1 15.122234 41.773505 3.315659
116 1 46.832557 35.748979 10.887809
117 1 13.141217 3.658139 15.718385
118 1 13.710144 14.027576 11.035948
119 1 41.881907 27.880235 18.930072
120 1 36.774675 48.955855 3.937527
121 1 17.285044 35.944938 18.419055
122 1 43.711058 45.898253 7.370961
123 1 36.491226 20.950829 22.761182
124 1 46.896291 24.255331 8.383168
125 1 13.47473 4.844347 21.103532
126 1 1.0 46.336542 16.534208
127 1 20.214978 47.909439 17.805064
128 1 34.469263 14.220386 7.349431
129 1 16.664802 9.053449 11.004602
130 1 43.035282 28.937924 15.012869
131 1 47.901893 43.768077 11.916575
132 1 16.637669 11.178682 12.258316
133 1 40.03226 7.09664 14.27068
134 1 45.123955 10.046608 6.150615
135 1 41.55613 4.989808 21.606945
136 1 1.0 31.35739 18.706292
137 1 2.798823 48.996651 17.510655
138 1 24.091685 6.464643 13.076907
139 1 31.530596 20.999754 6.430044
140 1 48.338201 15.128286 20.6075
141 1 35.190776 22.981476 4.691075
142 1 21.493044 13.053917 7.487598
143 1 13.955358 48.917818 24.681365
144 1 21.834796 13.200685 12.524272
145 1 24.612095 11.135068 26.710088
146 1 35.511694 47.511643 19.250508
147 1 25.394664 23.053173 10.923842
148 1 4.424582 32.729223 26.045794
149 1 49.014284 49.498163 24.174626
150 1 16.413208 50.0 28.0
151 1 13.825466 21.623722 21.908417
152 1 16.548331 22.991393 15.180278
153 1 6.714236 1.823535 17.076971
154 1 23.983563 7.854272 15.014852
155 1 41.577464 9.402434 26.989078
156 1 45.078758 10.88737 8.691203
157 1 4.345207 2.515269 7.793745
158 1 1.65573 42.469335 11.806552
159 1 32.306914 45.255268 23.348072
160 1 11.625286 49.69036 17.28315
161 1 46.93516 49.038671 25.322826
162 1 41.588184 11.842218 4.678072
163 1 41.876217 41.070904 10.645436
164 1 22.620763 2.424841 13.846404
165 1 49.39366 32.08242 14.251384
166 1 35.053896 3.37558 11.300739
167 1 13.683713 44.633223 8.992487
168 1 13.045676 39.903231 3.929232
169 1 29.922978 4.55766 21.563237
170 1 44.882513 15.240399 20.832016
171 1 13.120628 20.633032 3.039773
172 1 26.974857 7.361089 26.399215
173 1 13.966663 38.390979 20.001419
174 1 39.896893 19.819731 15.421072
175 1 43.470682 43.044915 26.822101
176 1 18.236043 2.862306 12.60474
177 1 19.183141 32.348017 2.039992
178 1 32.589003 15.488855 13.649028
179 1 29.067891 28.856537 24.271398
180 1 16.775882 33.665185 7.636396
181 1 11.712706 15.564486 15.946643
182 1 31.361481 32.770368 26.723989
183 1 21.886305 19.460563 3.990736
184 1 26.684738 33.594312 3.105781
185 1 21.410512 3.740913 3.953307
186 1 21.801097 44.576343 13.319518
187 1 10.756273 26.830617 21.134935
188 1 15.903573 12.873147 10.901701
189 1 32.139789 16.229107 16.833457
190 1 37.625329 39.800062 5.338398
191 1 21.063552 6.817274 12.274743
192 1 20.218632 47.837287 24.196554
193 1 42.651174 29.758692 7.839355
194 1 5.015287 5.372629 9.125869
195 1 10.368076 30.278365 4.463872
196 1 23.853568 25.39484 24.638048
197 1 27.447454 15.176272 3.619777
198 1 5.443962 36.17569 4.750847
199 1 40.395334 32.381086 13.992961
200 1 21.349423 29.053239 19.743419
201 1 40.084749 39.639288 9.041163
202 1 12.222285 22.047137 19.642004
203 1 42.201637 19.523153 19.802754
204 1 7.74285 15.068745 20.704776
205 1 44.832137 30.005618 7.168965
206 1 30.268651 44.71516 20.390848
207 1 36.619315 39.016645 2.72573
208 1 8.601844 39.112113 27.773203
209 1 29.823567 4.662011 16.358547
210 1 20.812843 10.846516 15.701516
211 1 27.399425 2.982463 22.278324
212 1 32.17952 32.042965 17.803554
213 1 39.715365 15.214938 6.018165
214 1 4.543389 10.79898 8.729336
215 1 7.263324 4.887675 15.186484
216 1 20.897679 30.746128 23.105822
217 1 3.176787 8.242487 9.240947
218 1 30.000014 34.015727 2.749737
219 1 25.926622 33.083701 25.41184
220 1 47.779353 37.932463 14.925368
221 1 48.131032 22.343373 27.986726
222 1 42.982202 44.45239 12.061048
223 1 42.836849 7.329352 8.343796
224 1 31.560752 13.422883 8.293867
225 1 34.30393 20.742537 23.95652
226 1 13.778519 41.598787 25.883712
227 1 37.731827 43.746114 4.782252
228 1 26.69553 12.007835 25.15892
229 1 34.979539 7.801476 8.690014
230 1 5.18028 21.809336 27.505088
231 1 29.290352 47.446601 10.445691
232 1 16.865067 3.508697 24.425551
233 1 48.614205 25.653994 5.242182
234 1 15.759561 31.208035 11.634828
235 1 1.796163 34.864375 8.674481
236 1 49.176283 48.534757 9.489078
237 1 20.025666 25.774038 23.540957
238 1 31.436896 38.267213 11.969919
239 1 6.047536 14.246134 11.873875
240 1 48.984987 19.426548 2.793697
241 1 8.838254 21.547402 2.842476
242 1 20.080472 19.299116 20.663261
243 1 4.016858 46.364794 19.947473
244 1 21.637642 41.133839 23.768998
245 1 6.492639 32.519843 10.341351
246 1 13.750396 22.607606 7.200263
247 1 38.121569 20.410502 6.62556
248 1 4.538324 30.44692 24.071097
249 1 3.901829 34.677315 24.323944
250 1 48.157727 30.252395 27.664098
251 1 49.027202 21.260388 17.155903
252 1 36.359955 44.968208 2.468107
253 1 9.691666 46.804034 15.814472
254 1 17.054077 34.627856 21.471547
255 1 2.897614 31.179336 14.702819
256 1 14.009961 35.187765 15.972023
257 1 32.400576 21.396533 26.247178
258 1 33.40855 47.459372 18.195016
259 1 25.816059 32.139652 7.02508
260 1 2.626735 7.039466 21.85161
261 1 11.996922 8.926201 4.427747
262 1 33.373304 24.105965 19.714517
263 1 4.547244 3.429682 2.950537
264 1 33.299513 15.369846 22.51016
265 1 44.077902 13.167838 5.500788
266 1 9.79043 39.268842 20.736824
267 1 46.972302 30.545506 12.086706
268 1 22.936756 9.860378 4.830755
269 1 29.091088 2.983197 20.201241
270 1 32.643583 41.691275 4.375311
271 1 30.062083 13.515367 11.682835
272 1 27.045495 34.962128 7.290157
273 1 9.894703 38.753612 4.213541
274 1 22.684428 21.431277 21.260191
275 1 6.88173 15.165649 27.349772
276 1 38.88918 27.790121 5.671574
277 1 18.319226 11.469628 27.973356
278 1 29.383307 13.038224 23.96731
279 1 26.153413 15.383326 25.902282
280 1 17.872758 27.36826 18.55273
281 1 47.126016 31.447135 6.376214
282 1 10.130667 43.169607 7.140853
283 1 41.927962 5.515459 25.120667
284 1 41.763135 9.433241 20.915026
285 1 9.515322 33.730408 9.701708
286 1 42.352635 20.808629 16.471734
287 1 22.528924 18.440585 23.41772
288 1 49.401219 45.075879 26.385838
289 1 29.651784 16.146661 5.743982
290 1 30.266018 9.416704 23.211691
291 1 23.538768 25.652504 21.613633
292 1 11.014414 31.429258 6.701704
293 1 44.404384 32.030383 24.26138
294 1 25.025913 18.102156 25.442767
295 1 2.929052 30.268188 7.944573
296 1 5.902673 34.079336 11.874726
297 1 49.597987 37.492334 2.385779
298 1 30.630258 46.967849 16.992962
299 1 28.203294 16.717353 21.676237
300 1 39.701503 30.717057 18.109196
301 1 27.638842 41.11169 13.691532
302 1 9.028339 6.720758 15.897832
303 1 40.586149 11.430268 26.093023
304 1 33.396098 20.36821 4.655095
305 1 20.686881 31.636764 20.649598
306 1 7.829424 41.507107 23.505493
307 1 27.638644 20.182455 10.652477
308 1 11.479224 8.164444 20.419818
309 1 4.626915 36.309935 20.275224
310 1 45.799097 18.291728 8.552654
311 1 8.817086 31.06551 26.811661
312 1 24.159296 31.584222 9.045215
313 1 11.403847 37.41019 24.421474
314 1 34.530555 7.823895 6.265853
315 1 23.212564 15.104243 7.020535
316 1 16.139761 5.083103 19.891714
317 1 13.676092 34.824138 25.373435
318 1 10.704983 46.733016 3.287911
319 1 45.022581 3.152578 6.683653
320 1 2.833087 15.488134 23.177229
321 1 30.429014 49.609472 19.464612
322 1 40.537314 8.441259 4.226979
323 1 11.369185 4.603064 22.973605
324 1 42.696013 4.811528 11.575415
325 1 9.662253 39.194246 10.838498
326 1 13.39675 9.911027 18.830474
327 1 46.530112 28.63464 10.012625
328 1 15.022087 28.767678 14.088162
329 1 29.670841 15.292323 3.269038
330 1 1.216847 34.554222 18.258839
331 1 14.182813 20.044688 8.829803
332 1 35.513972 5.527844 8.412031
333 1 2.74373 30.690157 21.141366
334 1 15.54371 23.850497 21.238026
335 1 40.01316 3.579069 17.261092
336 1 10.868737 44.309513 3.190464
337 1 47.155235 11.740799 19.130083
338 1 8.668779 2.80305 9.491372
339 1 45.364566 8.37014 24.784815
340 1 3.100072 32.639749 18.788855
341 1 32.039739 13.529307 19.72805
342 1 4.990093 33.509159 15.771165
343 1 4.427219 31.303942 3.577493
344 1 15.674963 2.722809 10.792863
345 1 25.6246 15.219937 9.681839
346 1 12.933628 23.493837 23.079147
347 1 7.479359 39.701839 25.483465
348 1 23.722889 6.120367 20.654536
349 1 19.046237 32.807577 6.654398
350 1 5.00468 35.638274 17.688669
351 1 45.661766 24.273097 17.290893
352 1 23.981495 11.356373 15.400938
353 1 39.535071 25.914217 12.293491
354 1 1.359805 21.075043 21.884606
355 1 45.151099 49.149808 18.148854
356 1 18.801275 18.819429 18.625638
357 1 45.363088 31.992183 8.008679
358 1 25.765708 27.598946 25.036314
359 1 32.743028 32.647754 7.311997
360 1 37.869248 4.333342 18.425401
361 1 47.448504 12.489751 25.137742
362 1 1.913049 41.007024 23.800597
363 1 33.344063 45.028115 4.775017
364 1 41.751418 47.790907 10.451711
365 1 13.696242 20.453851 14.478226
366 1 12.978198 30.124735 22.227695
367 1 27.826845 7.816116 10.835133
368 1 24.305953 21.553434 4.411273
369 1 4.538758 39.812297 26.236729
370 1 34.876898 29.825792 8.507603
371 1 2.26464 19.687007 17.572857
372 1 6.713236 42.854764 11.474426
373 1 10.308494 14.8412 4.000206
374 1 27.831406 13.445751 5.532088
375 1 5.709464 16.786992 22.036269
376 1 44.253838 46.763327 13.889569
377 1 33.061116 5.243629 7.041103
378 1 13.006071 17.07683 5.877004
379 1 7.76683 11.301673 14.599081
380 1 10.475872 46.481106 11.323521
381 1 37.720873 23.137015 7.426249
382 1 16.375499 25.837367 12.205536
383 1 27.232943 2.263927 13.155403
384 1 38.961481 10.158886 14.086904
385 1 35.946004 16.228513 27.109843
386 1 1.649447 48.356906 26.13893
387 1 17.119902 46.880835 3.799559
388 1 25.003431 44.276337 9.523012
389 1 48.88011 34.091053 21.600922
390 1 28.66309 26.616963 27.303089
391 1 45.282513 46.420486 26.207708
392 1 6.916062 21.880005 14.136486
393 1 16.202203 23.274919 2.768571
394 1 18.51855 35.40962 5.534087
395 1 44.956812 33.568346 11.036882
396 1 15.815228 36.312048 27.325174
397 1 11.349189 9.075829 22.545755
398 1 1.0 11.675923 25.875843
399 1 33.672866 28.802072 2.353134
400 1 33.027985 12.641283 12.437943
401 1 14.881689 12.359126 20.820435
402 1 47.170967 27.192592 13.07807
403 1 44.681349 44.254126 25.198301
404 1 28.476927 24.796089 22.227734
405 1 4.187156 30.158681 19.098793
406 1 33.603221 5.869301 4.846742
407 1 13.301961 49.999657 21.999156
408 1 4.485141 2.037926 4.887831
409 1 30.905561 37.114504 14.455994
410 1 2.914849 46.212352 24.822392
411 1 49.999151 42.586871 14.18626
412 1 32.091052 19.647111 23.360988
413 1 12.404977 44.596137 11.151627
414 1 19.806281 46.650589 2.918005
415 1 32.44508 3.922577 2.044428
416 1 2.979688 5.907809 14.885841
417 1 13.429588 3.887623 8.343243
418 1 23.109034 28.860532 16.206498
419 1 15.768686 16.632803 24.730739
420 1 2.357939 46.391627 22.080246
421 1 38.287671 6.431136 22.690116
422 1 20.201715 2.165605 2.357168
423 1 30.916931 23.339944 7.65855
424 1 29.025728 30.989248 12.20879
425 1 1.61271 6.827888 24.950779
426 1 30.702982 41.833056 13.964813
427 1 11.712989 45.694669 8.882666
428 1 23.489863 24.279484 3.969319
429 1 14.357968 12.961737 5.434218
430 1 44.910858 8.718855 22.471095
431 1 3.173571 11.442129 23.778429
432 1 9.114685 25.365191 10.650743
433 1 1.046 9.213198 2.107838
434 1 33.883487 6.965484 19.733081
435 1 44.720072 31.299374 13.13664
436 1 10.97372 5.710274 27.860786
437 1 30.377517 22.430274 9.728144
438 1 2.689675 43.847519 4.167684
439 1 20.619272 23.160826 4.544517
440 1 45.822883 39.183551 4.863896
441 1 27.58347 37.608706 17.513165
442 1 16.937893 14.416178 12.214755
443 1 40.823751 39.210712 6.573901
444 1 39.980746 28.529295 14.177466
445 1 32.544902 5.771145 9.646945
446 1 49.057323 3.458143 16.178012
447 1 37.116229 21.598466 2.876641
448 1 43.109892 11.664236 14.220297
449 1 40.628539 33.699614 23.635396
450 1 24.475905 48.437292 27.773225
451 1 27.418648 43.591028 27.221716
452 1 45.682374 45.869647 15.910542
453 1 36.765217 25.363983 7.87691
454 1 1.738574 44.632135 14.95188
455 1 7.088246 48.243179 3.764263
456 1 9.945916 1.996307 6.627644
457 1 41.864906 13.782831 7.30249
458 1 19.757583 17.597525 12.578807
459 1 38.877089 17.984326 4.593907
460 1 30.795933 44.562273 8.215165
461 1 16.443589 1.450763 6.678727
462 1 12.364901 33.706474 23.395832
463 1 39.097905 36.116303 3.53434
464 1 29.916304 47.407447 3.094255
465 1 5.179328 42.678042 21.222652
466 1 38.766461 13.383469 10.484753
467 1 46.918508 20.586101 7.578647
468 1 43.088123 29.654396 22.754918
469 1 5.99563 43.504656 5.923517
470 1 39.810546 5.09667 15.371934
471 1 24.370244 34.42745 15.006263
472 1 20.896249 20.893249 27.561446
473 1 9.142014 39.269968 14.612294
474 1 41.821128 35.472018 16.302108
475 1 25.951449 42.151348 23.427127
476 1 35.049525 26.185476 4.904505
477 1 25.862372 12.830921 17.052566
478 1 1.236775 31.315739 16.318657
479 1 17.571142 1.524411 8.593262
480 1 8.668672 24.298505 16.982259
481 1 8.105914 19.984541 16.962344
482 1 34.424193 26.206156 10.86488
483 1 7.20554 48.42166 22.949481
484 1 33.522559 46.508764 16.211191
485 1 3.395218 44.012018 23.137512
486 1 15.288786 13.174501 23.099675
487 1 30.005107 48.129506 5.316131
488 1 20.450609 20.133473 6.068736
489 1 2.003726 18.391098 3.384959
490 1 9.487126 12.533067 12.111902
491 1 38.27779 3.356169 21.86248
492 1 31.303834 9.293592 16.331386
493 1 37.24415 38.443368 16.827995
494 1 40.798891 9.911862 12.467419
495 1 35.893022 35.272319 23.09736
496 1 33.912414 33.433246 18.651417
497 1 45.464618 43.959951 19.388619
498 1 17.988494 37.38898 2.425103
499 1 7.680685 20.346599 19.308649
500 1 23.013748 34.391848 13.137492
501 1 45.451805 46.167001 19.157577
502 1 12.440745 32.071781 4.119313
503 1 26.907482 43.863696 12.512465
504 1 48.112725 21.524028 21.834789
505 1 37.774683 13.774516 13.840842
506 1 2.507691 40.397389 28.0
507 1 3.507174 19.686144 10.480868
508 1 26.103427 31.280062 12.931222
509 1 1.191626 49.532825 11.363002
510 1 48.003712 35.543655 26.150887
511 1 46.631653 17.59637 19.885283
512 1 46.75818 37.316453 12.624558
513 1 42.456057 3.14141 16.189522
514 1 40.17839 38.721168 15.002601
515 1 3.425491 35.398178 2.780588
516 1 14.120798 14.150805 8.095932
517 1 32.946679 43.584828 25.607884
518 1 25.552501 5.69789 25.995786
519 1 6.109653 46.250385 27.31618
520 1 15.169656 29.587238 16.182613
521 1 26.732848 30.082365 7.791289
522 1 1.50406 38.276338 24.822052
523 1 36.304888 11.97026 27.327568
524 1 13.143128 46.665785 27.725058
525 1 18.296713 3.470604 5.27538
526 1 5.015191 10.129869 5.545051
527 1 46.704846 20.87258 24.027064
528 1 29.275685 38.284449 19.020833
529 1 17.910429 1.114199 4.110089
530 1 5.53709 6.942006 6.366022
531 1 43.079496 27.18768 8.997289
532 1 8.551297 32.536917 15.995998
533 1 26.55597 15.177687 22.549027
534 1 44.308191 17.532887 21.267248
535 1 27.823273 35.327411 24.967446
536 1 20.093976 36.627817 20.303777
537 1 14.699005 19.666302 11.682831
538 1 3.392122 48.216057 7.835816
539 1 22.52334 39.68363 21.194
540 1 38.512169 48.943689 20.059973
541 1 18.142783 45.210991 26.621705
542 1 14.359397 42.750482 17.19259
543 1 10.20793 22.388801 25.062419
544 1 38.26354 16.646215 20.611903
545 1 13.777441 33.065566 16.81316
546 1 33.814101 30.359845 10.482772
547 1 38.286864 38.984987 26.894256
548 1 5.22082 7.393954 13.192315
549 1 29.586014 21.337475 26.379105
550 1 13.04383 5.839808 12.465766
551 1 21.215398 23.622996 14.94431
552 1 47.339753 2.22372 20.592392
553 1 21.794448 1.29357 21.496375
554 1 48.294368 5.673007 26.748035
555 1 38.663181 3.179818 4.705778
556 1 29.258114 43.880481 3.206448
557 1 48.690922 1.530539 22.51218
558 1 2.810663 37.025396 18.599324
559 1 7.235053 4.677586 7.892753
560 1 30.180959 14.905779 20.351221
561 1 28.311699 20.570283 6.016461
562 1 28.669392 33.037636 10.842789
563 1 6.901719 13.255394 25.373622
564 1 49.510762 16.747382 25.584095
565 1 44.266565 18.090697 5.851965
566 1 1.437602 46.29558 11.901304
567 1 13.460573 37.001258 6.152119
568 1 4.353335 12.885014 6.349796
569 1 21.496475 33.695522 22.83411
570 1 25.116975 16.256819 15.059621
571 1 38.925632 32.260514 25.962751
572 1 1.0 32.389006 21.481591
573 1 49.119457 12.637502 14.849001
574 1 39.869988 11.49074 9.478109
575 1 33.310832 7.910856 3.70234
576 1 32.281548 49.877079 7.532025
577 1 37.469383 12.650717 16.267139
578 1 15.160276 5.655277 22.345846
579 1 27.583592 36.131417 27.011484
580 1 44.154841 35.463283 20.297122
581 1 1.098735 41.626505 14.513049
582 1 40.835185 47.504021 21.073431
583 1 48.610066 12.524247 27.767724
584 1 25.805308 27.675267 15.078725
585 1 21.093019 36.352174 23.68043
586 1 40.391434 30.531547 8.42629
587 1 33.770465 27.640935 23.741305
588 1 22.255297 32.948601 10.461308
589 1 38.066444 49.77108 17.56416
590 1 6.374051 12.071246 12.117983
591 1 12.056946 42.348752 4.212856
592 1 32.603726 40.983278 20.987204
593 1 5.219867 46.119244 24.612163
594 1 48.617734 8.523621 9.245643
595 1 24.632272 8.275465 17.117273
596 1 18.852278 3.03384 20.232029
597 1 26.338333 15.749278 18.710801
598 1 35.009305 34.998574 17.533525
599 1 7.191269 1.0 8.891849
600 1 9.936222 42.474186 16.572897
601 1 14.213671 46.565211 7.990823
602 1 7.370294 14.10558 17.158321
603 1 23.236514 50.0 2.01231
604 1 22.963975 44.53022 5.602999
605 1 4.105449 15.567872 20.434966
606 1 39.097323 36.799543 18.13563
607 1 28.994481 29.784257 3.03113
608 1 48.814669 19.638894 25.581223
609 1 15.682317 33.495029 14.921391
610 1 6.11888 12.114039 4.995416
611 1 23.000659 27.455101 5.697893
612 1 22.765973 47.258253 3.315882
613 1 4.693511 40.464234 18.341514
614 1 48.468175 3.080414 13.616485
615 1 39.370225 30.114281 10.463688
616 1 30.475012 32.38342 6.419293
617 1 4.27268 15.256387 13.215603
618 1 7.454673 43.002956 25.177412
619 1 2.312778 9.259652 25.741252
620 1 17.671273 28.177786 6.068032
621 1 49.58085 41.529244 6.62178
622 1 8.184171 28.306503 27.999832
623 1 18.375544 16.182799 11.315697
624 1 37.918795 46.488708 10.611562
625 1 35.866347 29.360625 16.984446
626 1 30.894812 18.13951 20.756167
627 1 32.264803 7.720266 12.033278
628 1 30.207903 24.115152 16.282617
629 1 48.990577 35.958838 27.999366
630 1 16.445133 28.197612 11.781012
631 1 27.495357 7.375149 16.047246
632 1 41.760229 35.043083 24.985671
633 1 25.54877 24.640289 8.874021
634 1 14.287725 15.692268 4.562384
635 1 17.441484 38.653334 14.85403
636 1 47.082181 28.321827 17.314224
637 1 43.311866 11.432669 21.389269
638 1 22.278177 7.947548 22.826213
639 1 17.385452 33.472996 24.079678
640 1 42.147473 2.472616 13.62242
641 1 38.69051 26.073648 14.722696
642 1 49.038574 39.546144 17.053981
643 1 11.178715 47.233289 6.297697
644 1 8.182803 10.535399 6.056832
645 1 48.229941 27.564913 6.580075
646 1 38.359035 15.966492 11.53579
647 1 10.478346 36.004706 6.571402
648 1 42.115852 49.300809 6.124258
649 1 34.927523 29.2321 18.98856
650 1 18.882868 15.704782 9.226836
651 1 30.961273 22.642143 4.410941
652 1 29.931485 35.28107 4.599296
653 1 35.109312 17.315404 16.64825
654 1 46.131275 8.088799 3.895432
655 1 24.164097 32.487889 4.88171
656 1 24.238771 13.024735 2.391434
657 1 16.572772 45.166403 11.197513
658 1 42.596815 22.447061 5.675
659 1 28.637687 46.87561 15.728188
660 1 11.156793 23.856988 7.648985
661 1 44.213772 26.179038 24.220072
662 1 8.852289 29.462736 15.010834
663 1 12.00104 45.311744 17.464903
664 1 14.550048 14.395566 14.467554
665 1 14.318243 32.93549 20.312915
666 1 40.814886 30.708173 22.759721
667 1 18.919447 19.271016 8.688898
668 1 21.850415 32.985711 27.476372
669 1 35.081612 41.835975 24.405626
670 1 24.527965 24.726053 6.578484
671 1 7.71412 7.496547 13.903871
672 1 11.112943 28.046213 27.243345
673 1 36.6648 49.956397 15.51519
674 1 32.025581 39.63422 14.278533
675 1 12.540305 21.790947 5.081526
676 1 10.169322 26.333208 2.932278
677 1 31.941578 15.807918 19.298986
678 1 15.159238 44.850363 21.278136
679 1 16.710381 8.920521 27.477448
680 1 4.46958 39.800445 10.548255
681 1 4.000942 24.058949 12.372232
682 1 35.420383 48.89048 17.253214
683 1 48.212489 38.900184 27.58376
684 1 34.337715 41.570576 9.247536
685 1 28.053675 31.624992 2.002253
686 1 16.282321 35.909843 15.666639
687 1 42.203411 33.093614 12.364799
688 1 33.993067 33.1949 9.156254
689 1 10.602661 44.951942 27.738867
690 1 29.408481 31.839181 18.098652
691 1 27.825947 16.91583 24.081336
692 1 2.570134 21.259822 8.53381
693 1 37.039255 42.311533 12.421834
694 1 38.149194 29.537463 16.845081
695 1 2.789394 33.873127 21.137525
696 1 14.335241 10.631498 16.878675
697 1 1.004303 48.841882 24.042914
698 1 11.697436 21.91049 10.163283
699 1 28.569792 35.825278 22.57703
700 1 33.690384 8.630741 10.374684
701 1 39.985412 39.443204 20.450489
702 1 22.006137 5.232115 26.491211
703 1 45.719949 30.696807 27.94378
704 1 29.000506 5.790004 13.989455
705 1 27.939236 13.255991 14.990538
706 1 37.995648 1.898776 18.859314
707 1 40.529038 48.686903 8.750674
708 1 28.994098 9.392537 16.953552
709 1 22.049941 27.851167 22.035014
710 1 28.841429 22.791164 5.345776
711 1 4.232731 12.36343 11.167526
712 1 47.694014 25.640353 19.799061
713 1 20.754451 40.312635 4.286667
714 1 9.122635 35.426109 4.708337
715 1 44.497243 36.462586 6.07768
716 1 12.558465 48.552387 8.0764
717 1 23.688239 5.209752 3.631337
718 1 37.093763 8.068703 7.07416
719 1 43.235283 41.752555 21.628456
720 1 7.192673 14.51847 14.79111
721 1 15.877623 50.0 9.845196
722 1 10.2436 10.883665 9.992427
723 1 21.825817 46.128498 21.180382
724 1 37.708984 4.497367 6.763823
725 1 40.330558 49.648983 4.679513
726 1 28.459617 8.030734 22.070671
727 1 4.742968 13.843141 28.0
728 1 21.405947 2.452957 8.189286
729 1 10.516065 4.054412 2.0
730 1 18.467606 3.001243 15.120253
731 1 12.124602 35.163359 20.781835
732 1 17.530116 7.703999 24.207621
733 1 40.896915 16.586262 10.934627
734 1 40.982238 35.400412 13.817807
735 1 46.246931 19.103881 5.117078
736 1 48.628503 41.820508 12.640011
737 1 24.285715 5.433607 9.969247
738 1 43.910591 42.464335 14.979373
739 1 10.031362 32.164715 11.39249
740 1 26.167915 33.692146 9.428669
741 1 42.149238 40.850999 17.357363
742 1 25.620933 16.700463 6.860909
743 1 36.717086 35.220234 19.253338
744 1 42.763963 23.429919 14.264963
745 1 42.230523 2.178519 25.947787
746 1 16.860003 6.437008 4.258389
747 1 21.583734 33.696978 20.596674
748 1 6.066509 49.916893 24.508739
749 1 34.499585 3.757911 23.885452
750 1 35.838989 3.151701 18.222265
751 1 34.344474 23.056562 7.376969
752 1 33.809856 10.563346 17.362119
753 1 47.397382 40.388232 9.615954
754 1 4.951358 9.463969 3.31103
755 1 40.400416 38.335358 3.570256
756 1 7.378205 18.371395 23.134089
757 1 28.651 9.097461 25.244761
758 1 1.958433 41.758586 18.997472
759 1 2.218811 44.67342 9.930809
760 1 1.930931 24.560247 14.42846
761 1 44.171012 10.933837 26.03737
762 1 25.77402 40.709583 4.793911
763 1 36.897252 9.29467 17.192132
764 1 20.808031 15.608007 3.949691
765 1 30.770102 34.383964 18.85294
766 1 17.23724 4.238275 17.457532
767 1 37.825297 33.031076 16.26991
768 1 47.523086 45.89573 10.629157
769 1 48.223105 45.447508 2.612808
770 1 37.508276 43.033259 18.641504
771 1 13.057851 9.914454 9.227192
772 1 28.042328 12.722408 12.758179
773 1 42.822126 35.202727 27.404792
774 1 20.532033 8.397224 14.873205
775 1 46.97355 39.03696 19.154216
776 1 47.509706 21.43653 13.946379
777 1 49.149117 25.348402 14.936973
778 1 49.718965 41.91404 18.573568
779 1 23.786599 29.773505 20.506291
780 1 18.987302 7.567919 7.433454
781 1 8.27891 11.773493 23.37584
782 1 36.560253 17.59159 14.916405
783 1 46.060268 33.762122 21.893895
784 1 11.905364 27.390571 19.282927
785 1 23.094441 21.620963 18.90408
786 1 30.25547 13.414875 16.21465
787 1 7.084759 49.570349 7.518863
788 1 12.047603 7.713951 17.11887
789 1 14.423511 6.293748 16.875225
790 1 4.319347 19.0398 26.916371
791 1 7.903989 45.362573 6.948309
792 1 19.816683 9.925997 27.501071
793 1 29.433983 30.764769 21.757959
794 1 42.48788 38.379141 11.070247
795 1 20.553343 21.43317 24.710668
796 1 50.0 36.659211 25.729171
797 1 22.694571 15.549727 13.700592
798 1 19.939493 4.083257 7.05422
799 1 27.405092 41.243569 21.332335
800 1 33.616578 36.94444 3.091237
801 1 10.085697 38.537411 17.830345
802 1 26.502163 4.273377 10.294661
803 1 44.886046 16.206552 18.620959
804 1 4.349728 7.689299 15.288224
805 1 40.652933 5.894238 27.146128
806 1 15.475492 41.656962 11.291623
807 1 33.8823 22.964322 22.902607
808 1 34.232678 24.19222 12.540538
809 1 35.031282 39.916427 4.811932
810 1 26.840442 35.568081 2.142071
811 1 22.788925 39.058845 6.756519
812 1 20.440034 35.029775 25.809227
813 1 38.595464 25.000689 17.351085
814 1 42.872344 11.383893 23.810259
815 1 44.107618 49.489874 24.158402
816 1 2.412136 17.419571 20.864592
817 1 33.494149 16.179239 27.918375
818 1 23.480322 17.989604 7.319092
819 1 24.977148 35.566707 13.066205
820 1 39.037331 49.271594 6.842262
821 1 42.964103 4.459655 5.837478
822 1 30.904781 11.240558 27.213283
823 1 4.757082 11.132324 20.053352
824 1 28.563124 24.766864 2.505851
825 1 45.106195 36.476117 23.795362
826 1 41.327813 43.006979 26.140119
827 1 19.899592 22.508296 2.0
828 1 18.302314 29.384098 23.529281
829 1 16.156013 6.916127 18.521875
830 1 43.073937 44.662278 14.456447
831 1 21.427418 18.055592 18.145063
832 1 29.206486 17.854631 17.202008
833 1 37.158634 44.299203 23.262791
834 1 35.327332 3.360307 26.073476