# LAMMPS data file written by OVITO Basic 3.4.3
1365 atoms
1 atom types
1.002716 50.031805 xlo xhi
1.003243 50.055229 ylo yhi
1.928175 28.067763 zlo zhi

Atoms  # atomic

1 1 36.399324 19.303434 2.225523
2 1 25.029562 20.37023 23.339535
3 1 28.022236 24.420378 7.801074
4 1 13.031207 26.735811 26.729428
5 1 15.147344 41.802896 3.300616
6 1 46.865463 35.744261 10.892911
7 1 13.782668 3.540597 15.467091
8 1 13.70386 14.02569 11.080939
9 1 42.200427 28.914139 18.35308
10 1 36.811012 48.926484 3.943994
11 1 17.294075 35.963627 18.50044
12 1 43.71102 46.451948 6.798782
13 1 36.491226 20.950829 22.761182
14 1 46.896291 24.255331 8.383168
15 1 13.367786 4.803078 21.024727
16 1 1.273367 46.797241 16.739604
17 1 20.214978 47.909439 17.805064
18 1 34.482694 14.263354 7.355273
19 1 16.6932 9.058313 10.977666
20 1 43.078826 28.933439 15.016991
21 1 48.125521 43.576506 12.031229
22 1 16.637669 11.178682 12.258316
23 1 39.986421 6.878653 14.407163
24 1 45.114823 9.948441 5.954438
25 1 41.55613 4.989808 21.606945
26 1 1.003413 31.350244 18.705832
27 1 2.556329 48.554651 17.416622
28 1 24.205529 6.256726 13.170378
29 1 32.312232 21.077736 7.484698
30 1 48.395238 15.091236 20.628267
31 1 35.063995 22.913197 4.664909
32 1 21.493044 13.053917 7.487598
33 1 14.362825 48.478563 23.959564
34 1 22.029948 12.776644 12.650861
35 1 24.612095 11.135068 26.710088
36 1 35.514857 47.512869 19.2519
37 1 25.329488 22.886186 11.178934
38 1 4.435855 32.7054 26.080203
39 1 49.061742 49.506634 24.146708
40 1 13.213286 49.088734 27.377435
41 1 13.835346 21.600042 21.889209
42 1 16.548331 22.991393 15.180278
43 1 6.714236 1.823535 17.076971
44 1 24.585703 8.400554 14.754979
45 1 41.633081 9.285944 27.042672
46 1 45.067118 11.227452 8.278164
47 1 4.427268 2.62415 7.657163
48 1 1.65573 42.469335 11.806552
49 1 32.306914 45.255268 23.348072
50 1 11.625286 49.69036 17.28315
51 1 47.122056 49.160388 25.287759
52 1 41.588184 11.842218 4.678072
53 1 42.13351 41.217557 10.813524
54 1 22.620763 2.424841 13.846404
55 1 49.226721 32.445409 14.453477
56 1 35.103349 3.729445 11.161553
57 1 13.720141 44.604924 8.978734
58 1 13.011873 39.892944 3.916537
59 1 29.954084 4.569984 21.537902
60 1 44.83147 15.273372 20.83463
61 1 13.130222 20.61389 3.006019
62 1 27.005865 7.394354 26.439152
63 1 13.966663 38.390979 20.001419
64 1 39.83857 19.833811 15.227031
65 1 43.470682 43.044915 26.822101
66 1 18.276903 2.867128 12.620734
67 1 19.183141 32.348017 2.039992
68 1 32.58061 15.526389 13.655798
69 1 29.067891 28.856537 24.271398
70 1 16.775882 33.665185 7.636396
71 1 11.070642 14.892628 15.174601
72 1 31.361481 32.770368 26.723989
73 1 24.672732 18.01048 4.093385
74 1 25.965273 32.647975 2.911269
75 1 21.417709 3.780842 4.031521
76 1 21.801097 44.576343 13.319518
77 1 10.847064 26.82144 21.178998
78 1 15.899474 12.867182 10.8975
79 1 32.138149 16.219059 16.804798
80 1 37.642881 39.80554 5.360547
81 1 21.071334 6.79414 12.236696
82 1 20.218632 47.837287 24.196554
83 1 42.333186 29.520232 7.804005
84 1 4.976551 5.224934 9.03633
85 1 9.78883 30.022556 4.730445
86 1 23.853568 25.39484 24.638048
87 1 27.4631 15.110316 3.705539
88 1 5.443962 36.17569 4.750847
89 1 40.080765 32.288004 14.165604
90 1 21.354773 29.032374 19.736101
91 1 40.072823 40.042996 9.467292
92 1 12.222312 22.047139 19.642012
93 1 42.201637 19.523153 19.802754
94 1 7.738067 15.080551 20.701126
95 1 44.678497 29.995816 8.003506
96 1 30.448839 44.946607 20.565009
97 1 36.612599 39.009844 2.703794
98 1 8.601844 39.112113 27.773203
99 1 29.236518 5.348682 16.231178
100 1 20.812843 10.846516 15.701516
101 1 28.383243 2.570487 22.989646
102 1 30.924462 32.191883 17.426745
103 1 39.698653 15.184186 6.023111
104 1 4.456174 11.449696 8.291629
105 1 7.263324 4.887675 15.186484
106 1 21.065916 30.965499 23.299697
107 1 2.928449 7.379877 9.563958
108 1 29.903022 33.608583 3.038758
109 1 25.763483 33.488997 24.662062
110 1 47.720091 38.241012 15.529266
111 1 48.131032 22.343373 27.986726
112 1 43.884455 43.467944 13.750918
113 1 42.836849 7.329352 8.343796
114 1 31.560752 13.422883 8.293867
115 1 34.309612 20.702965 23.968898
116 1 13.259285 42.037601 26.35759
117 1 38.293023 43.769769 4.133375
118 1 26.69553 12.007835 25.15892
119 1 35.17724 7.370009 9.250537
120 1 5.232429 21.843327 27.599838
121 1 29.251451 47.480918 10.304267
122 1 17.126602 3.184863 24.348248
123 1 48.614205 25.653994 5.242182
124 1 15.745217 31.199718 11.616798
125 1 1.796163 34.864375 8.674481
126 1 49.176283 48.534757 9.489078
127 1 19.030786 25.312019 21.567196
128 1 31.463984 38.220573 12.011407
129 1 6.058197 14.301337 11.99863
130 1 49.81767 19.356122 3.045367
131 1 8.838254 21.547402 2.842476
132 1 20.698393 18.672321 20.878458
133 1 4.016858 46.364794 19.947473
134 1 21.361811 41.048788 23.855435
135 1 6.449243 32.634555 10.454143
136 1 13.750396 22.607606 7.200263
137 1 38.125053 20.3868 6.618599
138 1 4.538324 30.44692 24.071097
139 1 3.829625 34.669147 24.127609
140 1 48.197775 30.245094 27.659503
141 1 49.027202 21.260388 17.155903
142 1 36.359955 44.968208 2.468107
143 1 9.691666 46.804034 15.814472
144 1 17.416947 34.90451 20.934585
145 1 2.897614 31.179336 14.702819
146 1 13.701867 35.647336 15.772515
147 1 32.445935 21.398053 26.24727
148 1 33.723956 47.869464 17.771608
149 1 25.462145 29.89816 6.057669
150 1 2.864415 7.533444 21.795039
151 1 11.929381 9.030695 4.327605
152 1 33.373304 24.105965 19.714517
153 1 4.547244 3.429682 2.950537
154 1 33.299513 15.369846 22.51016
155 1 43.608975 12.780508 6.336095
156 1 9.884901 39.313187 21.121512
157 1 46.976068 30.561779 12.104368
158 1 22.746689 9.135303 4.534809
159 1 29.091088 2.983197 20.201241
160 1 32.362253 41.209946 4.740193
161 1 29.886851 13.133822 11.855953
162 1 27.050725 34.969696 7.277413
163 1 9.894703 38.753612 4.213541
164 1 22.712854 21.437438 21.405723
165 1 6.775054 15.120478 27.30925
166 1 39.587444 27.8529 6.144686
167 1 18.310658 11.460024 27.981599
168 1 29.383307 13.038224 23.96731
169 1 25.833855 16.00005 26.639839
170 1 17.872758 27.36826 18.55273
171 1 47.126016 31.447135 6.376214
172 1 10.149946 43.142984 7.136845
173 1 41.525099 5.909903 24.803429
174 1 41.758922 9.451345 20.886498
175 1 9.519084 33.733294 9.700946
176 1 42.056895 20.415363 16.939331
177 1 22.555697 18.443307 23.426125
178 1 49.984045 43.827611 26.643992
179 1 26.841139 17.170488 4.405081
180 1 30.308067 9.448558 23.237963
181 1 23.521501 25.647264 21.645603
182 1 10.999422 31.422504 6.728847
183 1 44.03855 32.908246 25.538182
184 1 25.02586 18.068814 25.473686
185 1 2.929052 30.268188 7.944573
186 1 5.757954 34.132139 12.00722
187 1 49.597987 37.492334 2.385779
188 1 31.478177 46.290047 17.599122
189 1 28.693845 16.725562 20.044709
190 1 39.78492 30.888674 18.329389
191 1 27.638842 41.11169 13.691532
192 1 9.136135 6.806721 16.221524
193 1 40.558349 11.511353 26.038322
194 1 33.409877 20.338899 4.74436
195 1 20.681531 31.657629 20.656916
196 1 8.012034 41.18771 23.807499
197 1 27.638644 20.182455 10.652477
198 1 11.471571 8.14302 20.288571
199 1 4.685423 36.275125 20.30886
200 1 45.799097 18.291728 8.552654
201 1 9.614056 31.959963 26.107011
202 1 24.151965 31.56416 9.050866
203 1 11.458348 37.419453 24.394469
204 1 34.560113 7.824803 6.354934
205 1 23.190951 15.089919 7.021968
206 1 16.041745 5.021742 20.187971
207 1 13.311752 33.896109 22.873774
208 1 10.703145 46.754991 3.288427
209 1 45.040435 3.159821 6.680323
210 1 2.914485 15.174162 23.181687
211 1 30.429014 49.609472 19.464612
212 1 40.537314 8.441259 4.226979
213 1 11.330544 4.62529 22.96706
214 1 42.748547 4.787384 11.509868
215 1 7.299905 38.302305 11.719504
216 1 13.403606 9.916676 18.82055
217 1 46.526346 28.618368 9.994962
218 1 15.021965 28.766999 14.086426
219 1 29.697026 15.493546 3.83508
220 1 1.19902 34.519922 18.2489
221 1 14.182813 20.044688 8.829803
222 1 35.849181 5.406146 8.218177
223 1 2.749691 30.683766 21.140207
224 1 14.93255 24.031831 20.727267
225 1 40.385222 3.344898 17.380484
226 1 10.860565 44.306493 3.181605
227 1 47.450231 11.648603 19.355023
228 1 8.696508 2.789141 9.516195
229 1 45.364566 8.37014 24.784815
230 1 3.112705 32.646895 18.789315
231 1 32.039739 13.529307 19.72805
232 1 4.635104 33.027083 16.651322
233 1 4.903864 31.428581 3.627694
234 1 15.651987 2.728604 10.74157
235 1 25.6246 15.219937 9.681839
236 1 12.942091 23.508494 23.224872
237 1 7.479359 39.701839 25.483465
238 1 23.581861 6.181142 20.786518
239 1 19.046237 32.807577 6.654398
240 1 5.00468 35.638274 17.688669
241 1 45.627749 24.360661 17.334979
242 1 23.950955 11.34331 15.370917
243 1 39.609656 25.890586 12.221123
244 1 1.350183 21.07715 21.867878
245 1 45.638597 49.097403 17.949393
246 1 18.998261 20.281624 20.02879
247 1 45.555417 32.530778 8.107952
248 1 25.765708 27.598946 25.036314
249 1 32.69328 32.621031 7.241456
250 1 38.083513 4.367216 17.917513
251 1 47.145323 12.19749 24.276302
252 1 1.913049 41.007024 23.800597
253 1 33.344063 45.028115 4.775017
254 1 41.778685 47.770982 10.488324
255 1 13.696242 20.453851 14.478226
256 1 12.891275 30.137671 22.258877
257 1 28.072372 7.504898 10.284824
258 1 24.34009 21.466159 4.425118
259 1 4.561144 39.805848 26.212388
260 1 34.876898 29.825792 8.507603
261 1 2.35413 19.991371 17.406268
262 1 6.713236 42.854764 11.474426
263 1 10.308494 14.8412 4.000206
264 1 27.816675 13.494467 5.475714
265 1 5.748891 16.820999 22.070393
266 1 44.258438 46.771705 13.890036
267 1 33.071425 5.252503 7.002334
268 1 12.933397 17.183676 5.879555
269 1 7.769981 11.290382 14.616597
270 1 10.450836 46.500619 11.336486
271 1 38.47962 22.785149 7.731577
272 1 16.375499 25.837367 12.205536
273 1 27.227516 2.259366 13.167189
274 1 38.961481 10.158886 14.086904
275 1 35.958958 16.228774 27.105571
276 1 1.649447 48.356906 26.13893
277 1 17.028751 47.411694 3.298755
278 1 25.003431 44.276337 9.523012
279 1 48.219364 34.568681 20.822009
280 1 28.66309 26.616963 27.303089
281 1 45.223921 47.863152 25.996762
282 1 6.814931 21.820213 13.903682
283 1 16.202203 23.274919 2.768571
284 1 18.51855 35.40962 5.534087
285 1 44.960251 33.601302 11.006384
286 1 16.093456 35.877693 27.449972
287 1 11.495052 8.66158 22.590722
288 1 1.079934 12.00148 26.243091
289 1 33.672866 28.802072 2.353134
290 1 33.024072 12.612553 12.396312
291 1 16.368328 11.780369 20.797969
292 1 46.031843 27.161954 12.039918
293 1 44.901778 43.436754 24.985502
294 1 28.476927 24.796089 22.227734
295 1 4.187156 30.158681 19.098793
296 1 33.583511 5.934063 4.840891
297 1 13.301961 49.999657 21.999156
298 1 4.426365 2.13389 5.089244
299 1 30.86653 37.100053 14.435873
300 1 2.923377 46.247895 24.90731
301 1 49.977563 42.947939 14.053791
302 1 32.091052 19.647111 23.360988
303 1 12.413765 44.569353 11.190298
304 1 19.847439 46.72428 3.012893
305 1 32.44508 3.922577 2.044428
306 1 2.979688 5.907809 14.885841
307 1 13.429588 3.887623 8.343243
308 1 23.073957 28.875951 16.22117
309 1 16.082446 16.677957 24.415171
310 1 2.299847 46.42054 22.017329
311 1 38.419786 6.272072 22.500858
312 1 20.186101 2.114879 2.262405
313 1 31.000404 23.542204 7.887156
314 1 28.976164 30.926871 12.30481
315 1 1.61271 6.827888 24.950779
316 1 30.698719 41.844539 13.964671
317 1 11.532567 45.788224 8.770827
318 1 22.887064 23.641832 3.376637
319 1 14.038743 13.13234 5.425029
320 1 44.910858 8.718855 22.471095
321 1 3.167574 11.200252 23.927797
322 1 9.114685 25.365191 10.650743
323 1 1.046 9.213198 2.107838
324 1 33.874176 6.980676 19.707587
325 1 44.716634 31.266419 13.167138
326 1 10.97372 5.710274 27.860786
327 1 30.377517 22.430274 9.728144
328 1 2.689675 43.847519 4.167684
329 1 20.638962 23.086321 3.947137
330 1 45.822883 39.183551 4.863896
331 1 27.649529 37.635085 17.57202
332 1 16.973644 14.46167 12.181185
333 1 40.323565 40.365391 6.286012
334 1 40.051104 28.553362 13.923924
335 1 32.544902 5.771145 9.646945
336 1 48.722827 2.838554 16.524876
337 1 37.116229 21.598466 2.876641
338 1 42.75721 11.645439 13.699202
339 1 40.615676 33.67928 23.619664
340 1 24.604066 48.851466 27.998629
341 1 27.418648 43.591028 27.221716
342 1 45.612796 45.215713 16.159537
343 1 36.783387 25.433711 7.946715
344 1 1.586599 44.620789 14.996219
345 1 7.088246 48.243179 3.764263
346 1 10.221711 1.924366 6.816562
347 1 41.849779 13.825896 7.260899
348 1 19.784913 17.615073 12.638413
349 1 38.841919 17.996295 4.574573
350 1 30.806401 44.569659 8.160758
351 1 16.393634 1.406386 6.690709
352 1 12.106711 35.42661 26.852732
353 1 39.100273 36.036598 3.551733
354 1 29.937429 47.423628 3.094977
355 1 4.795839 42.837941 21.327683
356 1 38.766461 13.383469 10.484753
357 1 46.916494 19.796589 7.161344
358 1 43.443807 30.175776 23.029514
359 1 5.99563 43.504656 5.923517
360 1 39.094675 4.73203 15.808986
361 1 24.368935 34.425474 15.009886
362 1 20.896249 20.893249 27.561446
363 1 10.459813 38.701813 14.674588
364 1 41.74127 35.663323 16.132535
365 1 25.951449 42.151348 23.427127
366 1 35.049525 26.185476 4.904505
367 1 25.828288 12.844257 17.347497
368 1 1.236775 31.315739 16.318657
369 1 17.571142 1.524411 8.593262
370 1 9.159638 23.892903 16.452808
371 1 8.105589 19.984359 16.955158
372 1 34.424193 26.206156 10.86488
373 1 7.172095 48.428779 22.961228
374 1 33.585598 46.413423 16.101172
375 1 3.348621 43.909081 23.122862
376 1 15.428664 13.596789 23.495326
377 1 30.005107 48.129506 5.316131
378 1 20.46535 20.146327 6.027598
379 1 2.003726 18.391098 3.384959
380 1 9.499326 12.777229 12.405113
381 1 38.27779 3.356169 21.86248
382 1 31.347826 9.292244 16.331794
383 1 37.228676 38.419722 16.59829
384 1 41.144963 10.167418 11.866958
385 1 35.968057 35.517811 23.00099
386 1 33.471288 33.079336 18.435585
387 1 45.505817 43.773113 18.955342
388 1 17.988494 37.38898 2.425103
389 1 7.653113 20.362523 19.312928
390 1 23.018377 34.408344 13.154654
391 1 45.429092 46.135731 19.172283
392 1 12.455737 32.078534 4.09217
393 1 26.599072 43.623372 13.479409
394 1 48.186885 21.648116 21.493803
395 1 38.768375 13.669143 14.10043
396 1 2.485305 40.403838 27.991068
397 1 3.288722 19.930807 10.39267
398 1 26.215746 31.670193 12.953528
399 1 1.558828 49.319966 10.921219
400 1 48.076747 35.736536 26.068053
401 1 46.54678 17.583482 19.947805
402 1 46.075593 38.386353 11.390368
403 1 42.657576 2.788119 16.859204
404 1 39.970466 39.891979 16.077847
405 1 3.425491 35.398178 2.780588
406 1 14.127082 14.152691 8.050941
407 1 32.946679 43.584828 25.607884
408 1 25.714702 5.57405 26.102879
409 1 6.109653 46.250385 27.31618
410 1 15.169778 29.587918 16.18435
411 1 26.704019 30.473678 7.992306
412 1 1.50406 38.276338 24.822052
413 1 36.304888 11.97026 27.327568
414 1 14.034087 46.971224 27.376455
415 1 18.036927 3.343019 4.979363
416 1 5.244579 9.912183 5.782984
417 1 47.561085 21.621066 23.666357
418 1 29.438485 38.496317 19.078708
419 1 17.881635 1.099984 4.129644
420 1 5.53709 6.942006 6.366022
421 1 42.977407 27.368014 9.171174
422 1 8.551297 32.536917 15.995998
423 1 26.292002 14.861948 22.451469
424 1 44.297045 17.551882 21.283762
425 1 27.829987 35.268819 24.809816
426 1 20.093976 36.627817 20.303777
427 1 14.425834 19.575874 11.812288
428 1 4.177187 49.397164 7.266251
429 1 22.50994 39.678315 21.190032
430 1 38.469169 48.975309 19.940171
431 1 18.246055 45.149444 26.58152
432 1 15.120826 43.168716 17.16565
433 1 10.486245 22.90707 25.529878
434 1 38.386564 17.485677 20.679402
435 1 13.77863 33.024935 16.829537
436 1 33.812933 30.322179 10.502486
437 1 37.893158 38.655406 27.64904
438 1 5.221995 7.393556 13.189488
439 1 29.611857 21.359332 26.461054
440 1 13.060814 5.859636 12.483779
441 1 21.215398 23.622996 14.94431
442 1 47.31747 2.235152 20.560731
443 1 21.794448 1.29357 21.496375
444 1 47.247927 4.819597 26.403181
445 1 38.568567 3.158533 4.752604
446 1 29.258114 43.880481 3.206448
447 1 48.713205 1.519107 22.543842
448 1 2.784601 37.075142 18.533881
449 1 7.216021 4.71148 7.869074
450 1 30.180959 14.905779 20.351221
451 1 28.159904 20.459904 6.050482
452 1 28.478326 33.40011 11.686094
453 1 6.923464 13.22064 25.319053
454 1 49.510762 16.747382 25.584095
455 1 44.266565 18.090697 5.851965
456 1 1.795854 46.399808 11.38621
457 1 13.445488 36.977276 6.161883
458 1 4.392964 12.879529 6.370959
459 1 21.745318 33.283782 23.467261
460 1 25.087987 16.273228 15.04673
461 1 38.925632 32.260514 25.962751
462 1 1.031942 32.433196 21.469101
463 1 49.119457 12.637502 14.849001
464 1 40.184914 11.505212 10.069905
465 1 33.320232 7.83722 3.746961
466 1 32.226475 49.812025 7.941229
467 1 37.232601 12.671572 16.214505
468 1 15.314043 5.600355 22.324475
469 1 27.563087 36.201927 27.191158
470 1 44.154841 35.463283 20.297122
471 1 1.098735 41.626505 14.513049
472 1 40.604124 48.332127 21.922433
473 1 48.939123 10.744786 27.408476
474 1 25.840385 27.659847 15.064053
475 1 21.093019 36.352174 23.68043
476 1 40.133148 30.690373 8.460133
477 1 33.770465 27.640935 23.741305
478 1 22.239684 32.957168 10.411075
479 1 37.978734 49.696386 17.667887
480 1 6.688294 12.196167 12.222007
481 1 12.066956 42.329797 4.221199
482 1 32.528458 41.017998 20.769239
483 1 5.189316 46.129103 24.677849
484 1 48.617734 8.523621 9.245643
485 1 24.703126 8.514517 17.169456
486 1 18.852278 3.03384 20.232029
487 1 26.338333 15.749278 18.710801
488 1 35.465101 35.011217 17.712045
489 1 7.615753 1.00686 8.497239
490 1 9.777744 42.443714 16.463038
491 1 14.237894 46.568508 7.975987
492 1 7.364456 14.129738 17.036138
493 1 23.243256 49.99824 2.000121
494 1 22.963975 44.53022 5.602999
495 1 4.073695 15.498649 20.416222
496 1 39.022918 36.643272 18.269507
497 1 28.994481 29.784257 3.03113
498 1 48.814669 19.638894 25.581223
499 1 15.6659 33.410986 14.901577
500 1 6.105428 12.129474 4.99171
501 1 22.992523 27.420261 5.789228
502 1 22.759231 47.21822 3.334559
503 1 5.02697 40.747567 18.65579
504 1 48.468175 3.080414 13.616485
505 1 39.364542 30.116754 10.516642
506 1 30.287324 32.476471 6.107972
507 1 4.206632 15.982418 13.18638
508 1 7.554286 43.13689 25.125403
509 1 2.036669 9.88965 25.561218
510 1 17.657446 28.206467 6.051786
511 1 49.58085 41.529244 6.62178
512 1 8.230309 28.307183 27.991224
513 1 18.343993 16.147773 11.454835
514 1 37.918847 46.488567 10.61173
515 1 35.747398 29.36212 16.88446
516 1 30.894812 18.13951 20.756167
517 1 32.208178 7.773155 12.022178
518 1 30.207903 24.115152 16.282617
519 1 49.024719 35.904429 28.067763
520 1 16.445133 28.197612 11.781012
521 1 26.558125 7.33117 15.193594
522 1 41.964269 35.811228 25.269051
523 1 25.871446 24.243485 9.070343
524 1 14.3703 15.586366 4.522527
525 1 17.441484 38.653334 14.85403
526 1 46.536814 27.935257 17.096099
527 1 43.31351 11.432851 21.380216
528 1 22.315385 7.931463 22.806397
529 1 17.528666 33.388703 24.266702
530 1 43.105499 1.034843 14.399859
531 1 38.657645 26.094543 14.76934
532 1 49.220901 39.726625 17.264827
533 1 11.211089 47.145212 6.442772
534 1 8.21057 10.5448 6.090237
535 1 48.229941 27.564913 6.580075
536 1 38.359035 15.966492 11.53579
537 1 10.459778 36.007073 6.595691
538 1 42.134645 49.306906 6.097577
539 1 34.882707 29.22487 19.106024
540 1 19.289458 15.72938 8.96788
541 1 31.739564 22.781038 4.360356
542 1 29.935757 35.532084 4.833509
543 1 35.107627 17.315084 16.650261
544 1 46.145068 8.06199 3.864551
545 1 25.939072 33.475489 5.557469
546 1 24.194348 12.919844 2.398584
547 1 16.563138 45.160186 11.189959
548 1 42.596815 22.447061 5.675
549 1 28.008028 47.948823 15.466148
550 1 11.156793 23.856988 7.648985
551 1 43.979538 26.31857 24.449234
552 1 8.852289 29.462736 15.010834
553 1 11.983587 45.297137 17.468288
554 1 14.550048 14.395566 14.467554
555 1 14.765371 32.192085 21.147021
556 1 40.830144 30.680772 22.830755
557 1 18.895635 19.259264 8.72384
558 1 21.868936 32.986249 27.492775
559 1 35.268447 42.042993 24.466553
560 1 24.110244 24.121237 6.014722
561 1 7.71412 7.496547 13.903871
562 1 11.121669 27.791776 27.447463
563 1 36.673352 49.971919 15.480036
564 1 31.472151 39.760894 13.990398
565 1 12.530712 21.810089 5.11528
566 1 10.280135 26.299717 3.032112
567 1 31.936471 15.794272 19.34163
568 1 15.477342 45.309324 21.835419
569 1 17.563594 9.13829 27.421792
570 1 4.658078 40.04912 10.393727
571 1 4.031094 23.988148 12.368315
572 1 35.609884 48.957313 17.282778
573 1 48.194572 38.944892 27.582145
574 1 34.337715 41.570576 9.247536
575 1 28.041834 32.124337 1.928175
576 1 16.223299 35.978384 15.655153
577 1 42.014229 33.072464 12.542787
578 1 34.043983 33.259289 9.207081
579 1 10.348835 45.05775 27.986057
580 1 27.670663 32.2343 17.024016
581 1 27.674481 17.336176 26.699334
582 1 2.570134 21.259822 8.53381
583 1 36.634615 42.376175 13.14242
584 1 38.16129 29.505247 16.846561
585 1 2.805631 33.867319 21.313101
586 1 15.555054 8.746592 17.244362
587 1 1.004303 48.841882 24.042914
588 1 11.697436 21.91049 10.163283
589 1 28.52633 35.980227 22.604584
590 1 33.671494 8.616072 10.40467
591 1 39.692185 39.882395 18.609073
592 1 21.486142 4.970855 26.957118
593 1 45.6799 30.704108 27.948375
594 1 29.009361 5.717548 13.970759
595 1 27.930966 13.839143 14.960305
596 1 38.071187 1.859822 18.883391
597 1 40.54308 48.673905 8.829244
598 1 29.065326 9.706431 17.63874
599 1 22.049941 27.851167 22.035014
600 1 28.385968 23.56654 5.512326
601 1 3.680849 12.387097 11.40275
602 1 46.842313 25.776052 20.07123
603 1 20.749865 40.306721 4.277229
604 1 9.122635 35.426109 4.708337
605 1 44.895432 36.327137 5.999036
606 1 12.547244 48.571694 8.074533
607 1 23.72545 5.234763 3.62833
608 1 36.777981 8.041098 7.296114
609 1 43.235283 41.752555 21.628456
610 1 7.163131 14.473603 14.787768
611 1 15.878653 49.99927 9.836725
612 1 10.234874 10.885975 9.962826
613 1 21.825817 46.128498 21.180382
614 1 37.687553 4.745829 7.181297
615 1 39.984803 49.345642 4.752766
616 1 28.445865 8.00423 22.050717
617 1 4.990279 14.01236 27.99851
618 1 21.456952 2.425857 8.23501
619 1 10.532156 4.037112 2.014691
620 1 18.467606 3.001243 15.120253
621 1 12.203007 35.245326 20.955695
622 1 15.913269 9.797334 23.705288
623 1 40.896915 16.586262 10.934627
624 1 40.750861 34.846316 14.213223
625 1 46.110723 18.953132 4.692336
626 1 49.014895 41.155877 12.985569
627 1 24.368513 5.389603 9.982343
628 1 44.296337 42.318539 15.646729
629 1 10.096201 32.126956 11.261883
630 1 25.472781 33.910814 9.283249
631 1 42.018492 40.895795 17.259364
632 1 25.642546 16.714788 6.859476
633 1 35.438362 34.634943 20.016414
634 1 42.77823 23.438178 14.257805
635 1 42.514048 2.850429 24.813459
636 1 16.860003 6.437008 4.258389
637 1 21.581239 33.70336 20.552334
638 1 6.220462 49.862197 24.535661
639 1 34.511674 3.71172 23.904122
640 1 35.815278 3.198611 18.185043
641 1 33.92416 22.873675 7.524491
642 1 33.823008 10.53111 17.364212
643 1 47.397382 40.388232 9.615954
644 1 4.933469 9.4644 3.302827
645 1 40.440643 38.415747 3.568912
646 1 7.378205 18.371395 23.134089
647 1 28.649552 9.160086 25.170283
648 1 1.958433 41.758586 18.997472
649 1 2.218811 44.67342 9.930809
650 1 1.903587 24.589359 14.407948
651 1 44.171012 10.933837 26.03737
652 1 25.77402 40.709583 4.793911
653 1 37.028646 8.836769 16.512225
654 1 22.246843 17.559967 4.123088
655 1 30.772952 34.37397 18.859949
656 1 17.253067 4.225468 17.419766
657 1 38.902681 33.079231 16.24275
658 1 47.57077 45.63638 10.785047
659 1 48.223105 45.447508 2.612808
660 1 38.288498 41.745855 18.323421
661 1 13.057851 9.914454 9.227192
662 1 28.12115 11.184774 14.274826
663 1 42.806179 35.232809 27.429264
664 1 20.524251 8.420357 14.911252
665 1 46.991319 39.033434 19.195609
666 1 47.883732 21.037096 13.387223
667 1 49.993392 24.821108 14.72292
668 1 49.718965 41.91404 18.573568
669 1 23.786599 29.773505 20.506291
670 1 18.896211 7.820465 7.40336
671 1 8.275713 11.760416 23.39745
672 1 36.561937 17.59191 14.914395
673 1 45.975375 33.739705 21.890585
674 1 11.905364 27.390571 19.282927
675 1 23.110674 21.629474 18.766566
676 1 30.25547 13.414875 16.21465
677 1 7.084759 49.570349 7.518863
678 1 12.047603 7.713951 17.11887
679 1 14.423511 6.293748 16.875225
680 1 4.308496 19.183115 26.839675
681 1 7.876807 45.351689 6.929984
682 1 19.816978 9.925615 27.501001
683 1 30.165023 31.505717 21.092357
684 1 42.48788 38.379141 11.070247
685 1 20.615764 21.696183 24.656141
686 1 50.031805 36.717237 25.698058
687 1 22.694571 15.549727 13.700592
688 1 19.864344 3.27203 6.807315
689 1 27.177219 40.793069 20.929248
690 1 33.616578 36.94444 3.091237
691 1 10.146149 38.718514 18.02413
692 1 26.334878 4.357342 10.236435
693 1 44.845958 16.211096 18.564702
694 1 4.348553 7.689698 15.291051
695 1 40.652933 5.894238 27.146128
696 1 15.447187 41.634592 11.271646
697 1 33.874798 22.999436 22.883017
698 1 34.232678 24.19222 12.540538
699 1 35.021689 39.914752 4.808695
700 1 27.017857 35.660424 2.16788
701 1 22.788925 39.058845 6.756519
702 1 20.444651 35.069659 25.805345
703 1 38.593595 24.989198 17.382028
704 1 42.870701 11.383711 23.819312
705 1 44.075008 49.495078 24.144973
706 1 2.375265 17.442687 20.877892
707 1 33.481195 16.178979 27.922647
708 1 23.62072 18.160436 6.741082
709 1 25.074453 35.49023 13.057695
710 1 38.9962 49.296909 6.759907
711 1 42.996524 4.471204 5.865858
712 1 31.426971 10.98153 27.380332
713 1 4.756192 11.133297 20.052938
714 1 28.144053 25.480503 2.172089
715 1 45.106195 36.476117 23.795362
716 1 41.162556 43.177764 25.963789
717 1 19.312223 22.905896 2.002918
718 1 18.264715 29.362583 23.532405
719 1 16.283962 6.714857 18.539343
720 1 42.511812 45.373964 13.751647
721 1 21.490395 17.886799 18.131021
722 1 29.206486 17.854631 17.202008
723 1 37.474194 43.090467 24.769326
724 1 35.349834 3.353127 26.134151
725 1 27.053134 22.9247 20.394203
726 1 41.899283 17.689541 5.970704
727 1 17.128332 47.497908 17.820316
728 1 38.419035 34.187187 18.107233
729 1 9.655396 34.896635 21.941223
730 1 41.327816 20.040294 13.321094
731 1 13.644772 19.631343 27.999636
732 1 46.17655 28.037601 23.311876
733 1 31.113157 10.915842 8.728199
734 1 18.395846 46.342759 12.627037
735 1 19.75119 13.18368 26.562985
736 1 14.809698 44.233584 27.534098
737 1 14.660176 30.704906 24.322141
738 1 46.14518 47.359776 23.559413
739 1 10.28317 20.929232 21.726881
740 1 45.741048 39.281505 16.283083
741 1 8.289853 29.051486 25.823331
742 1 27.888799 24.869638 10.763891
743 1 1.002716 43.543404 27.99963
744 1 46.622589 22.517554 14.814723
745 1 4.438704 22.591153 9.761228
746 1 21.377673 20.020724 12.795171
747 1 36.17414 5.143675 20.250266
748 1 9.255984 45.886784 9.151309
749 1 17.883337 13.010495 4.636222
750 1 29.70275 25.361275 14.258431
751 1 41.493039 36.148397 22.363184
752 1 7.831843 17.94027 13.398171
753 1 10.246725 41.351014 10.683455
754 1 30.558758 46.308382 24.321269
755 1 15.639128 47.835883 6.669801
756 1 18.802435 17.988885 27.856182
757 1 44.248973 20.316556 7.611549
758 1 31.469642 43.264189 2.792121
759 1 48.592951 5.039089 2.045905
760 1 11.78155 49.582221 4.431806
761 1 15.786013 49.606933 20.776887
762 1 16.365072 1.847114 22.768457
763 1 46.062425 13.157208 21.081553
764 1 19.640168 18.040072 22.757958
765 1 11.099121 10.657227 12.894725
766 1 26.076044 8.86365 19.562024
767 1 34.950885 34.558314 4.584447
768 1 13.717517 39.205477 27.853922
769 1 43.809774 36.182386 10.419143
770 1 19.761573 15.190283 19.680559
771 1 49.873623 30.054104 13.81952
772 1 44.868891 14.287025 2.53325
773 1 37.950413 28.771126 26.793931
774 1 38.780534 28.763249 20.680123
775 1 39.64822 36.058912 20.869126
776 1 23.735694 18.248534 17.461384
777 1 10.840333 41.08853 19.939525
778 1 14.6973 46.164427 24.069935
779 1 41.074718 39.721713 13.253234
780 1 29.159578 8.772879 27.774433
781 1 15.268225 21.762877 18.967647
782 1 27.838104 45.981559 3.356211
783 1 13.981709 39.450078 5.912622
784 1 13.132053 6.744775 14.812987
785 1 40.454487 44.411058 14.878838
786 1 40.292105 4.601609 10.158511
787 1 19.113284 28.452741 20.174187
788 1 16.487945 27.465667 23.449366
789 1 20.538146 26.782734 3.042057
790 1 27.873102 10.52277 23.571565
791 1 45.866008 16.888059 25.811504
792 1 44.862986 5.022926 26.307435
793 1 24.591759 31.127979 1.988276
794 1 19.689326 9.066701 24.204979
795 1 22.385719 25.822638 3.988085
796 1 22.083124 8.881173 20.55067
797 1 19.187735 30.451468 5.186124
798 1 35.22597 37.181485 20.212494
799 1 31.690776 49.431133 10.177473
800 1 8.900696 35.876881 23.777117
801 1 9.421099 50.055229 24.261342
802 1 25.512659 5.239479 19.463943
803 1 4.86863 17.621628 23.98828
804 1 38.474274 20.708069 10.905247
805 1 43.688661 44.769431 8.491836
806 1 38.203177 41.164168 11.443315
807 1 14.232091 47.170153 21.707793
808 1 34.585244 41.467151 6.405388
809 1 47.87425 7.464395 27.999547
810 1 25.40493 26.227172 12.749312
811 1 5.629201 26.38333 21.879042
812 1 30.980328 29.450402 16.843628
813 1 16.698373 1.13622 14.160764
814 1 39.84824 40.615826 2.591106
815 1 5.930692 28.820256 13.850888
816 1 20.828995 18.133349 26.212682
817 1 41.868521 1.031058 27.998473
818 1 14.687725 30.372481 4.804137
819 1 14.14421 2.336115 12.306506
820 1 37.329517 10.430955 24.801501
821 1 16.262009 11.244848 8.522476
822 1 42.505503 2.131559 7.153126
823 1 36.967153 41.314876 26.094479
824 1 26.607202 4.911377 3.871389
825 1 7.716873 24.823962 22.54966
826 1 32.750774 18.456748 16.180387
827 1 29.017811 47.586247 8.048744
828 1 42.992003 37.91222 25.913076
829 1 29.002234 33.04425 25.049783
830 1 33.148731 47.325181 19.975869
831 1 34.675845 22.676592 25.623253