LAMMPS data file via write_data, version 23 Jun 2022, timestep = 10000000

5363 atoms
2 atom types

-1.8420360088348389 40.87796399116516 xlo xhi
-0.709 48.611 ylo yhi
-0.5 64.0999996185303 zlo zhi

Masses

1 12.01
2 39.948

Atoms # full

1 1 1 0 0 0 0 0 0 0
2 2 1 0 -1.228024 0.709 0 0 0 0
3 3 1 0 -1.228024 2.127 0 0 0 0
4 4 1 0 0 2.836 0 0 0 0
5 5 1 0 2.456048 0 0 0 0 0
6 6 1 0 1.228024 0.709 0 0 0 0
7 7 1 0 1.228024 2.127 0 0 0 0
8 8 1 0 2.456048 2.836 0 0 0 0
9 9 1 0 4.912096 0 0 0 0 0
10 10 1 0 3.684072 0.709 0 0 0 0
11 11 1 0 3.684072 2.127 0 0 0 0
12 12 1 0 4.912096 2.836 0 0 0 0
73 73 1 0 0 4.254 0 0 0 0
74 74 1 0 -1.228024 4.963 0 0 0 0
77 77 1 0 2.456048 4.254 0 0 0 0
78 78 1 0 1.228024 4.963 0 0 0 0
81 81 1 0 4.912096 4.254 0 0 0 0
82 82 1 0 3.684072 4.963 0 0 0 0
865 865 1 0 0 1.418 3.35 0 0 0
866 866 1 0 -1.228024 2.127 3.35 0 0 0
867 867 1 0 -1.228024 3.545 3.35 0 0 0
868 868 1 0 0 4.254 3.35 0 0 0
869 869 1 0 2.456048 1.418 3.35 0 0 0
870 870 1 0 1.228024 2.127 3.35 0 0 0
871 871 1 0 1.228024 3.545 3.35 0 0 0
872 872 1 0 2.456048 4.254 3.35 0 0 0
873 873 1 0 4.912096 1.418 3.35 0 0 0
874 874 1 0 3.684072 2.127 3.35 0 0 0
875 875 1 0 3.684072 3.545 3.35 0 0 0
876 876 1 0 4.912096 4.254 3.35 0 0 0
937 937 1 0 0 5.672 3.35 0 0 0
941 941 1 0 2.456048 5.672 3.35 0 0 0
945 945 1 0 4.912096 5.672 3.35 0 0 0
13 13 1 0 7.368144 0 0 0 0 0
14 14 1 0 6.14012 0.709 0 0 0 0
15 15 1 0 6.14012 2.127 0 0 0 0
16 16 1 0 7.368144 2.836 0 0 0 0
17 17 1 0 9.824192 0 0 0 0 0
18 18 1 0 8.596169 0.709 0 0 0 0
19 19 1 0 8.596169 2.127 0 0 0 0
20 20 1 0 9.824192 2.836 0 0 0 0
21 21 1 0 12.28024 0 0 0 0 0
22 22 1 0 11.052217 0.709 0 0 0 0
23 23 1 0 11.052217 2.127 0 0 0 0
24 24 1 0 12.28024 2.836 0 0 0 0
85 85 1 0 7.368144 4.254 0 0 0 0
86 86 1 0 6.14012 4.963 0 0 0 0
89 89 1 0 9.824192 4.254 0 0 0 0
90 90 1 0 8.596169 4.963 0 0 0 0
93 93 1 0 12.28024 4.254 0 0 0 0
94 94 1 0 11.052217 4.963 0 0 0 0
877 877 1 0 7.368144 1.418 3.35 0 0 0
878 878 1 0 6.14012 2.127 3.35 0 0 0
879 879 1 0 6.14012 3.545 3.35 0 0 0
880 880 1 0 7.368144 4.254 3.35 0 0 0
881 881 1 0 9.824192 1.418 3.35 0 0 0
882 882 1 0 8.596169 2.127 3.35 0 0 0
883 883 1 0 8.596169 3.545 3.35 0 0 0
884 884 1 0 9.824192 4.254 3.35 0 0 0
885 885 1 0 12.28024 1.418 3.35 0 0 0
886 886 1 0 11.052217 2.127 3.35 0 0 0
887 887 1 0 11.052217 3.545 3.35 0 0 0
888 888 1 0 12.28024 4.254 3.35 0 0 0
949 949 1 0 7.368144 5.672 3.35 0 0 0
953 953 1 0 9.824192 5.672 3.35 0 0 0
957 957 1 0 12.28024 5.672 3.35 0 0 0
25 25 1 0 14.736288 0 0 0 0 0
26 26 1 0 13.508265 0.709 0 0 0 0
27 27 1 0 13.508265 2.127 0 0 0 0
28 28 1 0 14.736288 2.836 0 0 0 0
29 29 1 0 17.192337 0 0 0 0 0
30 30 1 0 15.964313 0.709 0 0 0 0
31 31 1 0 15.964313 2.127 0 0 0 0
32 32 1 0 17.192337 2.836 0 0 0 0
34 34 1 0 18.420361 0.709 0 0 0 0
35 35 1 0 18.420361 2.127 0 0 0 0
97 97 1 0 14.736288 4.254 0 0 0 0
98 98 1 0 13.508265 4.963 0 0 0 0
101 101 1 0 17.192337 4.254 0 0 0 0
102 102 1 0 15.964313 4.963 0 0 0 0
106 106 1 0 18.420361 4.963 0 0 0 0
889 889 1 0 14.736288 1.418 3.35 0 0 0
890 890 1 0 13.508265 2.127 3.35 0 0 0
891 891 1 0 13.508265 3.545 3.35 0 0 0
892 892 1 0 14.736288 4.254 3.35 0 0 0
893 893 1 0 17.192337 1.418 3.35 0 0 0
894 894 1 0 15.964313 2.127 3.35 0 0 0
895 895 1 0 15.964313 3.545 3.35 0 0 0
896 896 1 0 17.192337 4.254 3.35 0 0 0
898 898 1 0 18.420361 2.127 3.35 0 0 0
899 899 1 0 18.420361 3.545 3.35 0 0 0
961 961 1 0 14.736288 5.672 3.35 0 0 0
965 965 1 0 17.192337 5.672 3.35 0 0 0
33 33 1 0 19.648384 0 0 0 0 0
36 36 1 0 19.648384 2.836 0 0 0 0
37 37 1 0 22.104433 0 0 0 0 0
38 38 1 0 20.876408 0.709 0 0 0 0
39 39 1 0 20.876408 2.127 0 0 0 0
40 40 1 0 22.104433 2.836 0 0 0 0
41 41 1 0 24.56048 0 0 0 0 0
42 42 1 0 23.332457 0.709 0 0 0 0
43 43 1 0 23.332457 2.127 0 0 0 0
44 44 1 0 24.56048 2.836 0 0 0 0
46 46 1 0 25.788504 0.709 0 0 0 0
47 47 1 0 25.788504 2.127 0 0 0 0
105 105 1 0 19.648384 4.254 0 0 0 0
109 109 1 0 22.104433 4.254 0 0 0 0
110 110 1 0 20.876408 4.963 0 0 0 0
113 113 1 0 24.56048 4.254 0 0 0 0
114 114 1 0 23.332457 4.963 0 0 0 0
118 118 1 0 25.788504 4.963 0 0 0 0
897 897 1 0 19.648384 1.418 3.35 0 0 0
900 900 1 0 19.648384 4.254 3.35 0 0 0
901 901 1 0 22.104433 1.418 3.35 0 0 0
902 902 1 0 20.876408 2.127 3.35 0 0 0
903 903 1 0 20.876408 3.545 3.35 0 0 0
904 904 1 0 22.104433 4.254 3.35 0 0 0
905 905 1 0 24.56048 1.418 3.35 0 0 0
906 906 1 0 23.332457 2.127 3.35 0 0 0
907 907 1 0 23.332457 3.545 3.35 0 0 0
908 908 1 0 24.56048 4.254 3.35 0 0 0
910 910 1 0 25.788504 2.127 3.35 0 0 0
911 911 1 0 25.788504 3.545 3.35 0 0 0
969 969 1 0 19.648384 5.672 3.35 0 0 0
973 973 1 0 22.104433 5.672 3.35 0 0 0
977 977 1 0 24.56048 5.672 3.35 0 0 0
45 45 1 0 27.016529 0 0 0 0 0
48 48 1 0 27.016529 2.836 0 0 0 0
49 49 1 0 29.472576 0 0 0 0 0
50 50 1 0 28.244553 0.709 0 0 0 0
51 51 1 0 28.244553 2.127 0 0 0 0
52 52 1 0 29.472576 2.836 0 0 0 0
53 53 1 0 31.928625 0 0 0 0 0
54 54 1 0 30.7006 0.709 0 0 0 0
55 55 1 0 30.7006 2.127 0 0 0 0
56 56 1 0 31.928625 2.836 0 0 0 0
58 58 1 0 33.156647 0.709 0 0 0 0
59 59 1 0 33.156647 2.127 0 0 0 0
117 117 1 0 27.016529 4.254 0 0 0 0
121 121 1 0 29.472576 4.254 0 0 0 0
122 122 1 0 28.244553 4.963 0 0 0 0
125 125 1 0 31.928625 4.254 0 0 0 0
126 126 1 0 30.7006 4.963 0 0 0 0
130 130 1 0 33.156647 4.963 0 0 0 0
909 909 1 0 27.016529 1.418 3.35 0 0 0
912 912 1 0 27.016529 4.254 3.35 0 0 0
913 913 1 0 29.472576 1.418 3.35 0 0 0
914 914 1 0 28.244553 2.127 3.35 0 0 0
915 915 1 0 28.244553 3.545 3.35 0 0 0
916 916 1 0 29.472576 4.254 3.35 0 0 0
917 917 1 0 31.928625 1.418 3.35 0 0 0
918 918 1 0 30.7006 2.127 3.35 0 0 0
919 919 1 0 30.7006 3.545 3.35 0 0 0
920 920 1 0 31.928625 4.254 3.35 0 0 0
922 922 1 0 33.156647 2.127 3.35 0 0 0
923 923 1 0 33.156647 3.545 3.35 0 0 0
981 981 1 0 27.016529 5.672 3.35 0 0 0
985 985 1 0 29.472576 5.672 3.35 0 0 0
989 989 1 0 31.928625 5.672 3.35 0 0 0
57 57 1 0 34.384674 0 0 0 0 0
60 60 1 0 34.384674 2.836 0 0 0 0
61 61 1 0 36.840721 0 0 0 0 0
62 62 1 0 35.612698 0.709 0 0 0 0
63 63 1 0 35.612698 2.127 0 0 0 0
64 64 1 0 36.840721 2.836 0 0 0 0
65 65 1 0 39.296768 0 0 0 0 0
66 66 1 0 38.068745 0.709 0 0 0 0
67 67 1 0 38.068745 2.127 0 0 0 0
68 68 1 0 39.296768 2.836 0 0 0 0
70 70 1 0 40.524792 0.709 0 0 0 0
71 71 1 0 40.524792 2.127 0 0 0 0
129 129 1 0 34.384674 4.254 0 0 0 0
133 133 1 0 36.840721 4.254 0 0 0 0
134 134 1 0 35.612698 4.963 0 0 0 0
137 137 1 0 39.296768 4.254 0 0 0 0
138 138 1 0 38.068745 4.963 0 0 0 0
142 142 1 0 40.524792 4.963 0 0 0 0
921 921 1 0 34.384674 1.418 3.35 0 0 0
924 924 1 0 34.384674 4.254 3.35 0 0 0
925 925 1 0 36.840721 1.418 3.35 0 0 0
926 926 1 0 35.612698 2.127 3.35 0 0 0
927 927 1 0 35.612698 3.545 3.35 0 0 0
928 928 1 0 36.840721 4.254 3.35 0 0 0
929 929 1 0 39.296768 1.418 3.35 0 0 0
930 930 1 0 38.068745 2.127 3.35 0 0 0
931 931 1 0 38.068745 3.545 3.35 0 0 0
932 932 1 0 39.296768 4.254 3.35 0 0 0
934 934 1 0 40.524792 2.127 3.35 0 0 0
935 935 1 0 40.524792 3.545 3.35 0 0 0
993 993 1 0 34.384674 5.672 3.35 0 0 0
997 997 1 0 36.840721 5.672 3.35 0 0 0
1001 1001 1 0 39.296768 5.672 3.35 0 0 0
75 75 1 0 -1.228024 6.381 0 0 0 0
76 76 1 0 0 7.09 0 0 0 0
79 79 1 0 1.228024 6.381 0 0 0 0
80 80 1 0 2.456048 7.09 0 0 0 0
83 83 1 0 3.684072 6.381 0 0 0 0
84 84 1 0 4.912096 7.09 0 0 0 0
145 145 1 0 0 8.508 0 0 0 0
146 146 1 0 -1.228024 9.217 0 0 0 0
147 147 1 0 -1.228024 10.635 0 0 0 0
148 148 1 0 0 11.344 0 0 0 0
149 149 1 0 2.456048 8.508 0 0 0 0
150 150 1 0 1.228024 9.217 0 0 0 0
151 151 1 0 1.228024 10.635 0 0 0 0
152 152 1 0 2.456048 11.344 0 0 0 0
153 153 1 0 4.912096 8.508 0 0 0 0
154 154 1 0 3.684072 9.217 0 0 0 0
155 155 1 0 3.684072 10.635 0 0 0 0
156 156 1 0 4.912096 11.344 0 0 0 0
217 217 1 0 0 12.762 0 0 0 0
221 221 1 0 2.456048 12.762 0 0 0 0
225 225 1 0 4.912096 12.762 0 0 0 0
938 938 1 0 -1.228024 6.381 3.35 0 0 0
939 939 1 0 -1.228024 7.799 3.35 0 0 0
940 940 1 0 0 8.508 3.35 0 0 0
942 942 1 0 1.228024 6.381 3.35 0 0 0
943 943 1 0 1.228024 7.799 3.35 0 0 0
944 944 1 0 2.456048 8.508 3.35 0 0 0
946 946 1 0 3.684072 6.381 3.35 0 0 0
947 947 1 0 3.684072 7.799 3.35 0 0 0
948 948 1 0 4.912096 8.508 3.35 0 0 0
1009 1009 1 0 0 9.926 3.35 0 0 0
1010 1010 1 0 -1.228024 10.635 3.35 0 0 0
1011 1011 1 0 -1.228024 12.053 3.35 0 0 0
1012 1012 1 0 0 12.762 3.35 0 0 0
1013 1013 1 0 2.456048 9.926 3.35 0 0 0
1014 1014 1 0 1.228024 10.635 3.35 0 0 0
1015 1015 1 0 1.228024 12.053 3.35 0 0 0
1016 1016 1 0 2.456048 12.762 3.35 0 0 0
1017 1017 1 0 4.912096 9.926 3.35 0 0 0
1018 1018 1 0 3.684072 10.635 3.35 0 0 0
1019 1019 1 0 3.684072 12.053 3.35 0 0 0
1020 1020 1 0 4.912096 12.762 3.35 0 0 0
87 87 1 0 6.14012 6.381 0 0 0 0
88 88 1 0 7.368144 7.09 0 0 0 0
91 91 1 0 8.596169 6.381 0 0 0 0
92 92 1 0 9.824192 7.09 0 0 0 0
95 95 1 0 11.052217 6.381 0 0 0 0
96 96 1 0 12.28024 7.09 0 0 0 0
157 157 1 0 7.368144 8.508 0 0 0 0
158 158 1 0 6.14012 9.217 0 0 0 0
159 159 1 0 6.14012 10.635 0 0 0 0
160 160 1 0 7.368144 11.344 0 0 0 0
161 161 1 0 9.824192 8.508 0 0 0 0
162 162 1 0 8.596169 9.217 0 0 0 0
163 163 1 0 8.596169 10.635 0 0 0 0
164 164 1 0 9.824192 11.344 0 0 0 0
165 165 1 0 12.28024 8.508 0 0 0 0
166 166 1 0 11.052217 9.217 0 0 0 0
167 167 1 0 11.052217 10.635 0 0 0 0
168 168 1 0 12.28024 11.344 0 0 0 0
229 229 1 0 7.368144 12.762 0 0 0 0
233 233 1 0 9.824192 12.762 0 0 0 0
237 237 1 0 12.28024 12.762 0 0 0 0
950 950 1 0 6.14012 6.381 3.35 0 0 0
951 951 1 0 6.14012 7.799 3.35 0 0 0
952 952 1 0 7.368144 8.508 3.35 0 0 0
954 954 1 0 8.596169 6.381 3.35 0 0 0
955 955 1 0 8.596169 7.799 3.35 0 0 0
956 956 1 0 9.824192 8.508 3.35 0 0 0
958 958 1 0 11.052217 6.381 3.35 0 0 0
959 959 1 0 11.052217 7.799 3.35 0 0 0
960 960 1 0 12.28024 8.508 3.35 0 0 0
1021 1021 1 0 7.368144 9.926 3.35 0 0 0
1022 1022 1 0 6.14012 10.635 3.35 0 0 0
1023 1023 1 0 6.14012 12.053 3.35 0 0 0
1024 1024 1 0 7.368144 12.762 3.35 0 0 0
1025 1025 1 0 9.824192 9.926 3.35 0 0 0
1026 1026 1 0 8.596169 10.635 3.35 0 0 0
1027 1027 1 0 8.596169 12.053 3.35 0 0 0
1028 1028 1 0 9.824192 12.762 3.35 0 0 0
1029 1029 1 0 12.28024 9.926 3.35 0 0 0
1030 1030 1 0 11.052217 10.635 3.35 0 0 0
1031 1031 1 0 11.052217 12.053 3.35 0 0 0
1032 1032 1 0 12.28024 12.762 3.35 0 0 0
99 99 1 0 13.508265 6.381 0 0 0 0
100 100 1 0 14.736288 7.09 0 0 0 0
103 103 1 0 15.964313 6.381 0 0 0 0
104 104 1 0 17.192337 7.09 0 0 0 0
107 107 1 0 18.420361 6.381 0 0 0 0
169 169 1 0 14.736288 8.508 0 0 0 0
170 170 1 0 13.508265 9.217 0 0 0 0
171 171 1 0 13.508265 10.635 0 0 0 0
172 172 1 0 14.736288 11.344 0 0 0 0
173 173 1 0 17.192337 8.508 0 0 0 0
174 174 1 0 15.964313 9.217 0 0 0 0
175 175 1 0 15.964313 10.635 0 0 0 0
176 176 1 0 17.192337 11.344 0 0 0 0
178 178 1 0 18.420361 9.217 0 0 0 0
179 179 1 0 18.420361 10.635 0 0 0 0
241 241 1 0 14.736288 12.762 0 0 0 0
245 245 1 0 17.192337 12.762 0 0 0 0
962 962 1 0 13.508265 6.381 3.35 0 0 0
963 963 1 0 13.508265 7.799 3.35 0 0 0
964 964 1 0 14.736288 8.508 3.35 0 0 0
966 966 1 0 15.964313 6.381 3.35 0 0 0
967 967 1 0 15.964313 7.799 3.35 0 0 0
968 968 1 0 17.192337 8.508 3.35 0 0 0
970 970 1 0 18.420361 6.381 3.35 0 0 0
971 971 1 0 18.420361 7.799 3.35 0 0 0
1033 1033 1 0 14.736288 9.926 3.35 0 0 0
1034 1034 1 0 13.508265 10.635 3.35 0 0 0
1035 1035 1 0 13.508265 12.053 3.35 0 0 0
1036 1036 1 0 14.736288 12.762 3.35 0 0 0
1037 1037 1 0 17.192337 9.926 3.35 0 0 0
1038 1038 1 0 15.964313 10.635 3.35 0 0 0
1039 1039 1 0 15.964313 12.053 3.35 0 0 0
1040 1040 1 0 17.192337 12.762 3.35 0 0 0
1042 1042 1 0 18.420361 10.635 3.35 0 0 0
1043 1043 1 0 18.420361 12.053 3.35 0 0 0
108 108 1 0 19.648384 7.09 0 0 0 0
111 111 1 0 20.876408 6.381 0 0 0 0
112 112 1 0 22.104433 7.09 0 0 0 0
115 115 1 0 23.332457 6.381 0 0 0 0
116 116 1 0 24.56048 7.09 0 0 0 0
119 119 1 0 25.788504 6.381 0 0 0 0
177 177 1 0 19.648384 8.508 0 0 0 0
180 180 1 0 19.648384 11.344 0 0 0 0
181 181 1 0 22.104433 8.508 0 0 0 0
182 182 1 0 20.876408 9.217 0 0 0 0
183 183 1 0 20.876408 10.635 0 0 0 0
184 184 1 0 22.104433 11.344 0 0 0 0
185 185 1 0 24.56048 8.508 0 0 0 0
186 186 1 0 23.332457 9.217 0 0 0 0
187 187 1 0 23.332457 10.635 0 0 0 0
188 188 1 0 24.56048 11.344 0 0 0 0
190 190 1 0 25.788504 9.217 0 0 0 0
191 191 1 0 25.788504 10.635 0 0 0 0
249 249 1 0 19.648384 12.762 0 0 0 0
253 253 1 0 22.104433 12.762 0 0 0 0
257 257 1 0 24.56048 12.762 0 0 0 0
972 972 1 0 19.648384 8.508 3.35 0 0 0
974 974 1 0 20.876408 6.381 3.35 0 0 0
975 975 1 0 20.876408 7.799 3.35 0 0 0
976 976 1 0 22.104433 8.508 3.35 0 0 0
978 978 1 0 23.332457 6.381 3.35 0 0 0
979 979 1 0 23.332457 7.799 3.35 0 0 0
980 980 1 0 24.56048 8.508 3.35 0 0 0
982 982 1 0 25.788504 6.381 3.35 0 0 0
983 983 1 0 25.788504 7.799 3.35 0 0 0
1041 1041 1 0 19.648384 9.926 3.35 0 0 0
1044 1044 1 0 19.648384 12.762 3.35 0 0 0
1045 1045 1 0 22.104433 9.926 3.35 0 0 0
1046 1046 1 0 20.876408 10.635 3.35 0 0 0
1047 1047 1 0 20.876408 12.053 3.35 0 0 0
1048 1048 1 0 22.104433 12.762 3.35 0 0 0
1049 1049 1 0 24.56048 9.926 3.35 0 0 0
1050 1050 1 0 23.332457 10.635 3.35 0 0 0
1051 1051 1 0 23.332457 12.053 3.35 0 0 0
1052 1052 1 0 24.56048 12.762 3.35 0 0 0
1054 1054 1 0 25.788504 10.635 3.35 0 0 0
1055 1055 1 0 25.788504 12.053 3.35 0 0 0
120 120 1 0 27.016529 7.09 0 0 0 0
123 123 1 0 28.244553 6.381 0 0 0 0
124 124 1 0 29.472576 7.09 0 0 0 0
127 127 1 0 30.7006 6.381 0 0 0 0
128 128 1 0 31.928625 7.09 0 0 0 0
131 131 1 0 33.156647 6.381 0 0 0 0
189 189 1 0 27.016529 8.508 0 0 0 0
192 192 1 0 27.016529 11.344 0 0 0 0
193 193 1 0 29.472576 8.508 0 0 0 0
194 194 1 0 28.244553 9.217 0 0 0 0
195 195 1 0 28.244553 10.635 0 0 0 0
196 196 1 0 29.472576 11.344 0 0 0 0
197 197 1 0 31.928625 8.508 0 0 0 0
198 198 1 0 30.7006 9.217 0 0 0 0
199 199 1 0 30.7006 10.635 0 0 0 0
200 200 1 0 31.928625 11.344 0 0 0 0
202 202 1 0 33.156647 9.217 0 0 0 0
203 203 1 0 33.156647 10.635 0 0 0 0
261 261 1 0 27.016529 12.762 0 0 0 0
265 265 1 0 29.472576 12.762 0 0 0 0
269 269 1 0 31.928625 12.762 0 0 0 0
984 984 1 0 27.016529 8.508 3.35 0 0 0
986 986 1 0 28.244553 6.381 3.35 0 0 0
987 987 1 0 28.244553 7.799 3.35 0 0 0
988 988 1 0 29.472576 8.508 3.35 0 0 0
990 990 1 0 30.7006 6.381 3.35 0 0 0
991 991 1 0 30.7006 7.799 3.35 0 0 0
992 992 1 0 31.928625 8.508 3.35 0 0 0
994 994 1 0 33.156647 6.381 3.35 0 0 0
995 995 1 0 33.156647 7.799 3.35 0 0 0
1053 1053 1 0 27.016529 9.926 3.35 0 0 0
1056 1056 1 0 27.016529 12.762 3.35 0 0 0
1057 1057 1 0 29.472576 9.926 3.35 0 0 0
1058 1058 1 0 28.244553 10.635 3.35 0 0 0
1059 1059 1 0 28.244553 12.053 3.35 0 0 0
1060 1060 1 0 29.472576 12.762 3.35 0 0 0
1061 1061 1 0 31.928625 9.926 3.35 0 0 0
1062 1062 1 0 30.7006 10.635 3.35 0 0 0
1063 1063 1 0 30.7006 12.053 3.35 0 0 0
1064 1064 1 0 31.928625 12.762 3.35 0 0 0
1066 1066 1 0 33.156647 10.635 3.35 0 0 0
1067 1067 1 0 33.156647 12.053 3.35 0 0 0
132 132 1 0 34.384674 7.09 0 0 0 0
135 135 1 0 35.612698 6.381 0 0 0 0
136 136 1 0 36.840721 7.09 0 0 0 0
139 139 1 0 38.068745 6.381 0 0 0 0
140 140 1 0 39.296768 7.09 0 0 0 0
143 143 1 0 40.524792 6.381 0 0 0 0
201 201 1 0 34.384674 8.508 0 0 0 0
204 204 1 0 34.384674 11.344 0 0 0 0
205 205 1 0 36.840721 8.508 0 0 0 0
206 206 1 0 35.612698 9.217 0 0 0 0
207 207 1 0 35.612698 10.635 0 0 0 0
208 208 1 0 36.840721 11.344 0 0 0 0
209 209 1 0 39.296768 8.508 0 0 0 0
210 210 1 0 38.068745 9.217 0 0 0 0
211 211 1 0 38.068745 10.635 0 0 0 0
212 212 1 0 39.296768 11.344 0 0 0 0
214 214 1 0 40.524792 9.217 0 0 0 0
215 215 1 0 40.524792 10.635 0 0 0 0
273 273 1 0 34.384674 12.762 0 0 0 0
277 277 1 0 36.840721 12.762 0 0 0 0
281 281 1 0 39.296768 12.762 0 0 0 0
996 996 1 0 34.384674 8.508 3.35 0 0 0
998 998 1 0 35.612698 6.381 3.35 0 0 0
999 999 1 0 35.612698 7.799 3.35 0 0 0
1000 1000 1 0 36.840721 8.508 3.35 0 0 0
1002 1002 1 0 38.068745 6.381 3.35 0 0 0
1003 1003 1 0 38.068745 7.799 3.35 0 0 0
1004 1004 1 0 39.296768 8.508 3.35 0 0 0
1006 1006 1 0 40.524792 6.381 3.35 0 0 0
1007 1007 1 0 40.524792 7.799 3.35 0 0 0
1065 1065 1 0 34.384674 9.926 3.35 0 0 0
1068 1068 1 0 34.384674 12.762 3.35 0 0 0
1069 1069 1 0 36.840721 9.926 3.35 0 0 0
1070 1070 1 0 35.612698 10.635 3.35 0 0 0
1071 1071 1 0 35.612698 12.053 3.35 0 0 0
1072 1072 1 0 36.840721 12.762 3.35 0 0 0
1073 1073 1 0 39.296768 9.926 3.35 0 0 0
1074 1074 1 0 38.068745 10.635 3.35 0 0 0
1075 1075 1 0 38.068745 12.053 3.35 0 0 0
1076 1076 1 0 39.296768 12.762 3.35 0 0 0
1078 1078 1 0 40.524792 10.635 3.35 0 0 0
1079 1079 1 0 40.524792 12.053 3.35 0 0 0
218 218 1 0 -1.228024 13.471 0 0 0 0
219 219 1 0 -1.228024 14.889 0 0 0 0
220 220 1 0 0 15.598 0 0 0 0
222 222 1 0 1.228024 13.471 0 0 0 0
223 223 1 0 1.228024 14.889 0 0 0 0
224 224 1 0 2.456048 15.598 0 0 0 0
226 226 1 0 3.684072 13.471 0 0 0 0
227 227 1 0 3.684072 14.889 0 0 0 0
228 228 1 0 4.912096 15.598 0 0 0 0
289 289 1 0 0 17.016001 0 0 0 0
290 290 1 0 -1.228024 17.725 0 0 0 0
291 291 1 0 -1.228024 19.143 0 0 0 0
292 292 1 0 0 19.851999 0 0 0 0
293 293 1 0 2.456048 17.016001 0 0 0 0
294 294 1 0 1.228024 17.725 0 0 0 0
295 295 1 0 1.228024 19.143 0 0 0 0
296 296 1 0 2.456048 19.851999 0 0 0 0
297 297 1 0 4.912096 17.016001 0 0 0 0
298 298 1 0 3.684072 17.725 0 0 0 0
299 299 1 0 3.684072 19.143 0 0 0 0
300 300 1 0 4.912096 19.851999 0 0 0 0
1081 1081 1 0 0 14.18 3.35 0 0 0
1082 1082 1 0 -1.228024 14.889 3.35 0 0 0
1083 1083 1 0 -1.228024 16.306999 3.35 0 0 0
1084 1084 1 0 0 17.016001 3.35 0 0 0
1085 1085 1 0 2.456048 14.18 3.35 0 0 0
1086 1086 1 0 1.228024 14.889 3.35 0 0 0
1087 1087 1 0 1.228024 16.306999 3.35 0 0 0
1088 1088 1 0 2.456048 17.016001 3.35 0 0 0
1089 1089 1 0 4.912096 14.18 3.35 0 0 0
1090 1090 1 0 3.684072 14.889 3.35 0 0 0
1091 1091 1 0 3.684072 16.306999 3.35 0 0 0
1092 1092 1 0 4.912096 17.016001 3.35 0 0 0
1153 1153 1 0 0 18.434 3.35 0 0 0
1154 1154 1 0 -1.228024 19.143 3.35 0 0 0
1157 1157 1 0 2.456048 18.434 3.35 0 0 0
1158 1158 1 0 1.228024 19.143 3.35 0 0 0
1161 1161 1 0 4.912096 18.434 3.35 0 0 0
1162 1162 1 0 3.684072 19.143 3.35 0 0 0
230 230 1 0 6.14012 13.471 0 0 0 0
231 231 1 0 6.14012 14.889 0 0 0 0
232 232 1 0 7.368144 15.598 0 0 0 0
234 234 1 0 8.596169 13.471 0 0 0 0
235 235 1 0 8.596169 14.889 0 0 0 0
236 236 1 0 9.824192 15.598 0 0 0 0
238 238 1 0 11.052217 13.471 0 0 0 0
239 239 1 0 11.052217 14.889 0 0 0 0
240 240 1 0 12.28024 15.598 0 0 0 0
301 301 1 0 7.368144 17.016001 0 0 0 0
302 302 1 0 6.14012 17.725 0 0 0 0
303 303 1 0 6.14012 19.143 0 0 0 0
304 304 1 0 7.368144 19.851999 0 0 0 0
305 305 1 0 9.824192 17.016001 0 0 0 0
306 306 1 0 8.596169 17.725 0 0 0 0
307 307 1 0 8.596169 19.143 0 0 0 0
308 308 1 0 9.824192 19.851999 0 0 0 0
309 309 1 0 12.28024 17.016001 0 0 0 0
310 310 1 0 11.052217 17.725 0 0 0 0
311 311 1 0 11.052217 19.143 0 0 0 0
312 312 1 0 12.28024 19.851999 0 0 0 0
1093 1093 1 0 7.368144 14.18 3.35 0 0 0
1094 1094 1 0 6.14012 14.889 3.35 0 0 0
1095 1095 1 0 6.14012 16.306999 3.35 0 0 0
1096 1096 1 0 7.368144 17.016001 3.35 0 0 0
1097 1097 1 0 9.824192 14.18 3.35 0 0 0
1098 1098 1 0 8.596169 14.889 3.35 0 0 0
1099 1099 1 0 8.596169 16.306999 3.35 0 0 0
1100 1100 1 0 9.824192 17.016001 3.35 0 0 0
1101 1101 1 0 12.28024 14.18 3.35 0 0 0
1102 1102 1 0 11.052217 14.889 3.35 0 0 0
1103 1103 1 0 11.052217 16.306999 3.35 0 0 0
1104 1104 1 0 12.28024 17.016001 3.35 0 0 0
1165 1165 1 0 7.368144 18.434 3.35 0 0 0
1166 1166 1 0 6.14012 19.143 3.35 0 0 0
1169 1169 1 0 9.824192 18.434 3.35 0 0 0
1170 1170 1 0 8.596169 19.143 3.35 0 0 0
1173 1173 1 0 12.28024 18.434 3.35 0 0 0
1174 1174 1 0 11.052217 19.143 3.35 0 0 0
242 242 1 0 13.508265 13.471 0 0 0 0
243 243 1 0 13.508265 14.889 0 0 0 0
244 244 1 0 14.736288 15.598 0 0 0 0
246 246 1 0 15.964313 13.471 0 0 0 0
247 247 1 0 15.964313 14.889 0 0 0 0
248 248 1 0 17.192337 15.598 0 0 0 0
250 250 1 0 18.420361 13.471 0 0 0 0
251 251 1 0 18.420361 14.889 0 0 0 0
313 313 1 0 14.736288 17.016001 0 0 0 0
314 314 1 0 13.508265 17.725 0 0 0 0
315 315 1 0 13.508265 19.143 0 0 0 0
316 316 1 0 14.736288 19.851999 0 0 0 0
317 317 1 0 17.192337 17.016001 0 0 0 0
318 318 1 0 15.964313 17.725 0 0 0 0
319 319 1 0 15.964313 19.143 0 0 0 0
320 320 1 0 17.192337 19.851999 0 0 0 0
322 322 1 0 18.420361 17.725 0 0 0 0
323 323 1 0 18.420361 19.143 0 0 0 0
1105 1105 1 0 14.736288 14.18 3.35 0 0 0
1106 1106 1 0 13.508265 14.889 3.35 0 0 0
1107 1107 1 0 13.508265 16.306999 3.35 0 0 0
1108 1108 1 0 14.736288 17.016001 3.35 0 0 0
1109 1109 1 0 17.192337 14.18 3.35 0 0 0
1110 1110 1 0 15.964313 14.889 3.35 0 0 0
1111 1111 1 0 15.964313 16.306999 3.35 0 0 0
1112 1112 1 0 17.192337 17.016001 3.35 0 0 0
1114 1114 1 0 18.420361 14.889 3.35 0 0 0
1115 1115 1 0 18.420361 16.306999 3.35 0 0 0
1177 1177 1 0 14.736288 18.434 3.35 0 0 0
1178 1178 1 0 13.508265 19.143 3.35 0 0 0
1181 1181 1 0 17.192337 18.434 3.35 0 0 0
1182 1182 1 0 15.964313 19.143 3.35 0 0 0
1186 1186 1 0 18.420361 19.143 3.35 0 0 0
252 252 1 0 19.648384 15.598 0 0 0 0
254 254 1 0 20.876408 13.471 0 0 0 0
255 255 1 0 20.876408 14.889 0 0 0 0
256 256 1 0 22.104433 15.598 0 0 0 0
258 258 1 0 23.332457 13.471 0 0 0 0
259 259 1 0 23.332457 14.889 0 0 0 0
260 260 1 0 24.56048 15.598 0 0 0 0
262 262 1 0 25.788504 13.471 0 0 0 0
263 263 1 0 25.788504 14.889 0 0 0 0
321 321 1 0 19.648384 17.016001 0 0 0 0
324 324 1 0 19.648384 19.851999 0 0 0 0
325 325 1 0 22.104433 17.016001 0 0 0 0
326 326 1 0 20.876408 17.725 0 0 0 0
327 327 1 0 20.876408 19.143 0 0 0 0
328 328 1 0 22.104433 19.851999 0 0 0 0
329 329 1 0 24.56048 17.016001 0 0 0 0
330 330 1 0 23.332457 17.725 0 0 0 0
331 331 1 0 23.332457 19.143 0 0 0 0
332 332 1 0 24.56048 19.851999 0 0 0 0
334 334 1 0 25.788504 17.725 0 0 0 0
335 335 1 0 25.788504 19.143 0 0 0 0
1113 1113 1 0 19.648384 14.18 3.35 0 0 0
1116 1116 1 0 19.648384 17.016001 3.35 0 0 0
1117 1117 1 0 22.104433 14.18 3.35 0 0 0
1118 1118 1 0 20.876408 14.889 3.35 0 0 0
1119 1119 1 0 20.876408 16.306999 3.35 0 0 0
1120 1120 1 0 22.104433 17.016001 3.35 0 0 0
1121 1121 1 0 24.56048 14.18 3.35 0 0 0
1122 1122 1 0 23.332457 14.889 3.35 0 0 0
1123 1123 1 0 23.332457 16.306999 3.35 0 0 0
1124 1124 1 0 24.56048 17.016001 3.35 0 0 0
1126 1126 1 0 25.788504 14.889 3.35 0 0 0
1127 1127 1 0 25.788504 16.306999 3.35 0 0 0
1185 1185 1 0 19.648384 18.434 3.35 0 0 0
1189 1189 1 0 22.104433 18.434 3.35 0 0 0
1190 1190 1 0 20.876408 19.143 3.35 0 0 0
1193 1193 1 0 24.56048 18.434 3.35 0 0 0
1194 1194 1 0 23.332457 19.143 3.35 0 0 0
1198 1198 1 0 25.788504 19.143 3.35 0 0 0
264 264 1 0 27.016529 15.598 0 0 0 0
266 266 1 0 28.244553 13.471 0 0 0 0
267 267 1 0 28.244553 14.889 0 0 0 0
268 268 1 0 29.472576 15.598 0 0 0 0
270 270 1 0 30.7006 13.471 0 0 0 0
271 271 1 0 30.7006 14.889 0 0 0 0
272 272 1 0 31.928625 15.598 0 0 0 0
274 274 1 0 33.156647 13.471 0 0 0 0
275 275 1 0 33.156647 14.889 0 0 0 0
333 333 1 0 27.016529 17.016001 0 0 0 0
336 336 1 0 27.016529 19.851999 0 0 0 0
337 337 1 0 29.472576 17.016001 0 0 0 0
338 338 1 0 28.244553 17.725 0 0 0 0
339 339 1 0 28.244553 19.143 0 0 0 0
340 340 1 0 29.472576 19.851999 0 0 0 0
341 341 1 0 31.928625 17.016001 0 0 0 0
342 342 1 0 30.7006 17.725 0 0 0 0
343 343 1 0 30.7006 19.143 0 0 0 0
344 344 1 0 31.928625 19.851999 0 0 0 0
346 346 1 0 33.156647 17.725 0 0 0 0
347 347 1 0 33.156647 19.143 0 0 0 0
1125 1125 1 0 27.016529 14.18 3.35 0 0 0
1128 1128 1 0 27.016529 17.016001 3.35 0 0 0
1129 1129 1 0 29.472576 14.18 3.35 0 0 0
1130 1130 1 0 28.244553 14.889 3.35 0 0 0
1131 1131 1 0 28.244553 16.306999 3.35 0 0 0
1132 1132 1 0 29.472576 17.016001 3.35 0 0 0
1133 1133 1 0 31.928625 14.18 3.35 0 0 0
1134 1134 1 0 30.7006 14.889 3.35 0 0 0
1135 1135 1 0 30.7006 16.306999 3.35 0 0 0
1136 1136 1 0 31.928625 17.016001 3.35 0 0 0
1138 1138 1 0 33.156647 14.889 3.35 0 0 0
1139 1139 1 0 33.156647 16.306999 3.35 0 0 0
1197 1197 1 0 27.016529 18.434 3.35 0 0 0
1201 1201 1 0 29.472576 18.434 3.35 0 0 0
1202 1202 1 0 28.244553 19.143 3.35 0 0 0
1205 1205 1 0 31.928625 18.434 3.35 0 0 0
1206 1206 1 0 30.7006 19.143 3.35 0 0 0
1210 1210 1 0 33.156647 19.143 3.35 0 0 0
276 276 1 0 34.384674 15.598 0 0 0 0
278 278 1 0 35.612698 13.471 0 0 0 0
279 279 1 0 35.612698 14.889 0 0 0 0
280 280 1 0 36.840721 15.598 0 0 0 0
282 282 1 0 38.068745 13.471 0 0 0 0
283 283 1 0 38.068745 14.889 0 0 0 0
284 284 1 0 39.296768 15.598 0 0 0 0
286 286 1 0 40.524792 13.471 0 0 0 0
287 287 1 0 40.524792 14.889 0 0 0 0
345 345 1 0 34.384674 17.016001 0 0 0 0
348 348 1 0 34.384674 19.851999 0 0 0 0
349 349 1 0 36.840721 17.016001 0 0 0 0
350 350 1 0 35.612698 17.725 0 0 0 0
351 351 1 0 35.612698 19.143 0 0 0 0
352 352 1 0 36.840721 19.851999 0 0 0 0
353 353 1 0 39.296768 17.016001 0 0 0 0
354 354 1 0 38.068745 17.725 0 0 0 0
355 355 1 0 38.068745 19.143 0 0 0 0
356 356 1 0 39.296768 19.851999 0 0 0 0
358 358 1 0 40.524792 17.725 0 0 0 0
359 359 1 0 40.524792 19.143 0 0 0 0
1137 1137 1 0 34.384674 14.18 3.35 0 0 0
1140 1140 1 0 34.384674 17.016001 3.35 0 0 0
1141 1141 1 0 36.840721 14.18 3.35 0 0 0
1142 1142 1 0 35.612698 14.889 3.35 0 0 0
1143 1143 1 0 35.612698 16.306999 3.35 0 0 0
1144 1144 1 0 36.840721 17.016001 3.35 0 0 0
1145 1145 1 0 39.296768 14.18 3.35 0 0 0
1146 1146 1 0 38.068745 14.889 3.35 0 0 0
1147 1147 1 0 38.068745 16.306999 3.35 0 0 0
1148 1148 1 0 39.296768 17.016001 3.35 0 0 0
1150 1150 1 0 40.524792 14.889 3.35 0 0 0
1151 1151 1 0 40.524792 16.306999 3.35 0 0 0
1209 1209 1 0 34.384674 18.434 3.35 0 0 0
1213 1213 1 0 36.840721 18.434 3.35 0 0 0
1214 1214 1 0 35.612698 19.143 3.35 0 0 0
1217 1217 1 0 39.296768 18.434 3.35 0 0 0
1218 1218 1 0 38.068745 19.143 3.35 0 0 0
1222 1222 1 0 40.524792 19.143 3.35 0 0 0
361 361 1 0 0 21.27 0 0 0 0
362 362 1 0 -1.228024 21.979 0 0 0 0
363 363 1 0 -1.228024 23.396999 0 0 0 0
364 364 1 0 0 24.106001 0 0 0 0
365 365 1 0 2.456048 21.27 0 0 0 0
366 366 1 0 1.228024 21.979 0 0 0 0
367 367 1 0 1.228024 23.396999 0 0 0 0
368 368 1 0 2.456048 24.106001 0 0 0 0
369 369 1 0 4.912096 21.27 0 0 0 0
370 370 1 0 3.684072 21.979 0 0 0 0
371 371 1 0 3.684072 23.396999 0 0 0 0
372 372 1 0 4.912096 24.106001 0 0 0 0
433 433 1 0 0 25.524 0 0 0 0
434 434 1 0 -1.228024 26.233 0 0 0 0
437 437 1 0 2.456048 25.524 0 0 0 0
438 438 1 0 1.228024 26.233 0 0 0 0
441 441 1 0 4.912096 25.524 0 0 0 0
442 442 1 0 3.684072 26.233 0 0 0 0
1155 1155 1 0 -1.228024 20.561001 3.35 0 0 0
1156 1156 1 0 0 21.27 3.35 0 0 0
1159 1159 1 0 1.228024 20.561001 3.35 0 0 0
1160 1160 1 0 2.456048 21.27 3.35 0 0 0
1163 1163 1 0 3.684072 20.561001 3.35 0 0 0
1164 1164 1 0 4.912096 21.27 3.35 0 0 0
1225 1225 1 0 0 22.688 3.35 0 0 0
1226 1226 1 0 -1.228024 23.396999 3.35 0 0 0
1227 1227 1 0 -1.228024 24.815001 3.35 0 0 0
1228 1228 1 0 0 25.524 3.35 0 0 0
1229 1229 1 0 2.456048 22.688 3.35 0 0 0
1230 1230 1 0 1.228024 23.396999 3.35 0 0 0
1231 1231 1 0 1.228024 24.815001 3.35 0 0 0
1232 1232 1 0 2.456048 25.524 3.35 0 0 0
1233 1233 1 0 4.912096 22.688 3.35 0 0 0
1234 1234 1 0 3.684072 23.396999 3.35 0 0 0
1235 1235 1 0 3.684072 24.815001 3.35 0 0 0
1236 1236 1 0 4.912096 25.524 3.35 0 0 0
1297 1297 1 0 0 26.941999 3.35 0 0 0
1301 1301 1 0 2.456048 26.941999 3.35 0 0 0
1305 1305 1 0 4.912096 26.941999 3.35 0 0 0
373 373 1 0 7.368144 21.27 0 0 0 0
374 374 1 0 6.14012 21.979 0 0 0 0
375 375 1 0 6.14012 23.396999 0 0 0 0
376 376 1 0 7.368144 24.106001 0 0 0 0
377 377 1 0 9.824192 21.27 0 0 0 0
378 378 1 0 8.596169 21.979 0 0 0 0
379 379 1 0 8.596169 23.396999 0 0 0 0
380 380 1 0 9.824192 24.106001 0 0 0 0
381 381 1 0 12.28024 21.27 0 0 0 0
382 382 1 0 11.052217 21.979 0 0 0 0
383 383 1 0 11.052217 23.396999 0 0 0 0
384 384 1 0 12.28024 24.106001 0 0 0 0
445 445 1 0 7.368144 25.524 0 0 0 0
446 446 1 0 6.14012 26.233 0 0 0 0
449 449 1 0 9.824192 25.524 0 0 0 0
450 450 1 0 8.596169 26.233 0 0 0 0
453 453 1 0 12.28024 25.524 0 0 0 0
454 454 1 0 11.052217 26.233 0 0 0 0
1167 1167 1 0 6.14012 20.561001 3.35 0 0 0
1168 1168 1 0 7.368144 21.27 3.35 0 0 0
1171 1171 1 0 8.596169 20.561001 3.35 0 0 0
1172 1172 1 0 9.824192 21.27 3.35 0 0 0
1175 1175 1 0 11.052217 20.561001 3.35 0 0 0
1176 1176 1 0 12.28024 21.27 3.35 0 0 0
1237 1237 1 0 7.368144 22.688 3.35 0 0 0
1238 1238 1 0 6.14012 23.396999 3.35 0 0 0
1239 1239 1 0 6.14012 24.815001 3.35 0 0 0
1240 1240 1 0 7.368144 25.524 3.35 0 0 0
1241 1241 1 0 9.824192 22.688 3.35 0 0 0
1242 1242 1 0 8.596169 23.396999 3.35 0 0 0
1243 1243 1 0 8.596169 24.815001 3.35 0 0 0
1244 1244 1 0 9.824192 25.524 3.35 0 0 0
1245 1245 1 0 12.28024 22.688 3.35 0 0 0
1246 1246 1 0 11.052217 23.396999 3.35 0 0 0
1247 1247 1 0 11.052217 24.815001 3.35 0 0 0
1248 1248 1 0 12.28024 25.524 3.35 0 0 0
1309 1309 1 0 7.368144 26.941999 3.35 0 0 0
1313 1313 1 0 9.824192 26.941999 3.35 0 0 0
1317 1317 1 0 12.28024 26.941999 3.35 0 0 0
385 385 1 0 14.736288 21.27 0 0 0 0
386 386 1 0 13.508265 21.979 0 0 0 0
387 387 1 0 13.508265 23.396999 0 0 0 0
388 388 1 0 14.736288 24.106001 0 0 0 0
389 389 1 0 17.192337 21.27 0 0 0 0
390 390 1 0 15.964313 21.979 0 0 0 0
391 391 1 0 15.964313 23.396999 0 0 0 0
392 392 1 0 17.192337 24.106001 0 0 0 0
394 394 1 0 18.420361 21.979 0 0 0 0
395 395 1 0 18.420361 23.396999 0 0 0 0
457 457 1 0 14.736288 25.524 0 0 0 0
458 458 1 0 13.508265 26.233 0 0 0 0
461 461 1 0 17.192337 25.524 0 0 0 0
462 462 1 0 15.964313 26.233 0 0 0 0
466 466 1 0 18.420361 26.233 0 0 0 0
1179 1179 1 0 13.508265 20.561001 3.35 0 0 0
1180 1180 1 0 14.736288 21.27 3.35 0 0 0
1183 1183 1 0 15.964313 20.561001 3.35 0 0 0
1184 1184 1 0 17.192337 21.27 3.35 0 0 0
1187 1187 1 0 18.420361 20.561001 3.35 0 0 0
1249 1249 1 0 14.736288 22.688 3.35 0 0 0
1250 1250 1 0 13.508265 23.396999 3.35 0 0 0
1251 1251 1 0 13.508265 24.815001 3.35 0 0 0
1252 1252 1 0 14.736288 25.524 3.35 0 0 0
1253 1253 1 0 17.192337 22.688 3.35 0 0 0
1254 1254 1 0 15.964313 23.396999 3.35 0 0 0
1255 1255 1 0 15.964313 24.815001 3.35 0 0 0
1256 1256 1 0 17.192337 25.524 3.35 0 0 0
1258 1258 1 0 18.420361 23.396999 3.35 0 0 0
1259 1259 1 0 18.420361 24.815001 3.35 0 0 0
1321 1321 1 0 14.736288 26.941999 3.35 0 0 0
1325 1325 1 0 17.192337 26.941999 3.35 0 0 0
393 393 1 0 19.648384 21.27 0 0 0 0
396 396 1 0 19.648384 24.106001 0 0 0 0
397 397 1 0 22.104433 21.27 0 0 0 0
398 398 1 0 20.876408 21.979 0 0 0 0
399 399 1 0 20.876408 23.396999 0 0 0 0
400 400 1 0 22.104433 24.106001 0 0 0 0
401 401 1 0 24.56048 21.27 0 0 0 0
402 402 1 0 23.332457 21.979 0 0 0 0